TITLE     = "Tecplot Export"
VARIABLES = "CoordinateX"
"CoordinateY"
"CoordinateZ"
"uds-0-scalar"
ZONE T="first Step 1 Incr 0"
 STRANDID=5, SOLUTIONTIME=0
 Nodes=15272, Faces=28755, Elements=13503, ZONETYPE=FEPolygon
 DATAPACKING=BLOCK
 NumConnectedBoundaryFaces=0, TotalNumBoundaryConnections=0
 AUXDATA Time="0.000000e+00"
 DT=(SINGLE SINGLE SINGLE SINGLE )
 7.338843346E+00 6.942149162E+00 6.942149162E+00 7.338843346E+00 7.735537529E+00
 7.338843346E+00 7.735537529E+00 6.942149162E+00 7.338843346E+00 6.545454979E+00
 6.545454979E+00 7.735537529E+00 6.942149162E+00 8.132231712E+00 8.132231712E+00
 7.338843346E+00 7.735537529E+00 6.545454979E+00 7.735537529E+00 6.148760319E+00
 6.148760796E+00 6.545454979E+00 8.132231712E+00 6.942149162E+00 8.132231712E+00
 7.338843346E+00 7.735537529E+00 6.148760796E+00 8.132231712E+00 5.752066135E+00
 5.752066612E+00 6.148760319E+00 6.545454979E+00 6.942149162E+00 7.338843346E+00
 7.735537529E+00 5.752066612E+00 5.355371952E+00 5.355372429E+00 5.752066135E+00
 6.148760319E+00 6.545454979E+00 6.942149162E+00 7.338843346E+00 7.735537529E+00
 5.355372429E+00 4.958677769E+00 4.958677769E+00 5.355371952E+00 5.752066135E+00
 6.148760319E+00 6.545454979E+00 6.942149162E+00 7.338843346E+00 7.735537529E+00
 5.355371952E+00 5.752066612E+00 4.958677769E+00 4.561983585E+00 4.561983585E+00
 4.958677769E+00 5.355371952E+00 5.752066135E+00 6.148760319E+00 6.545454979E+00
 6.942149162E+00 7.338843346E+00 7.735537529E+00 4.958677769E+00 4.561983585E+00
 4.561983585E+00 4.085000038E+00 4.085000038E+00 4.958677769E+00 5.355371952E+00
 5.752066135E+00 6.148760319E+00 6.545454979E+00 6.942149162E+00 7.338843346E+00
 7.735537529E+00 4.561983585E+00 4.085000038E+00 4.561983585E+00 4.085000038E+00
 4.085000038E+00 4.085000038E+00 3.768595219E+00 3.768595219E+00 4.958677769E+00
 5.355371952E+00 5.752066135E+00 6.148760319E+00 6.545454979E+00 6.942149162E+00
 7.338843346E+00 7.735537529E+00 4.085000038E+00 4.085000038E+00 3.768595219E+00
 4.561983585E+00 4.085000038E+00 4.085000038E+00 3.768595219E+00 3.371901035E+00
 3.371901035E+00 4.958677769E+00 5.355371952E+00 5.752066135E+00 6.148760319E+00
 6.545454979E+00 6.942149162E+00 7.338843346E+00 7.735537529E+00 4.085000038E+00
 3.768595219E+00 4.085000038E+00 4.561983585E+00 3.371901035E+00 4.561983585E+00
 4.085000038E+00 4.085000038E+00 3.768595219E+00 3.371901035E+00 2.975206614E+00
 2.975206852E+00 4.958677769E+00 5.355371952E+00 5.752066135E+00 6.148760319E+00
 6.545454979E+00 6.942149162E+00 7.338843346E+00 7.610000134E+00 3.371901035E+00
 3.768595219E+00 4.085000038E+00 4.085000038E+00 3.768595219E+00 2.975206852E+00
 4.561983585E+00 4.085000038E+00 3.768595219E+00 4.085000038E+00 3.371901035E+00
 2.975206614E+00 2.578512430E+00 2.578512669E+00 4.958677769E+00 5.355371952E+00
 5.752066135E+00 6.148760319E+00 6.545454979E+00 6.942149162E+00 2.975206852E+00
 3.371901035E+00 3.371901035E+00 2.578512669E+00 4.561983585E+00 4.085000038E+00
 4.085000038E+00 3.768595219E+00 3.768595219E+00 4.085000038E+00 3.371901035E+00
 2.975206614E+00 2.578512430E+00 2.035000086E+00 2.035000086E+00 4.958677769E+00
 5.355371952E+00 5.752066135E+00 6.148760319E+00 6.545454979E+00 2.578512669E+00
 2.975206614E+00 2.975206852E+00 2.035000086E+00 4.561983585E+00 4.085000038E+00
 3.768595219E+00 4.085000038E+00 3.371901035E+00 3.371901035E+00 2.975206614E+00
 2.578512430E+00 2.035000086E+00 1.785124063E+00 1.785124063E+00 4.958677769E+00
 5.355371952E+00 5.752066135E+00 6.148760319E+00 2.035000086E+00 2.578512430E+00
 2.578512669E+00 2.035000086E+00 1.785124063E+00 4.561983585E+00 4.085000038E+00
 4.085000038E+00 3.768595219E+00 3.371901035E+00 2.975206614E+00 2.975206852E+00
 2.578512430E+00 2.035000086E+00 4.958677769E+00 5.355371952E+00 5.752066135E+00
 2.035000086E+00 1.785124063E+00 2.181818247E+00 4.561983585E+00 4.085000038E+00
 4.085000038E+00 3.768595219E+00 3.371901035E+00 2.975206614E+00 2.578512430E+00
 2.578512669E+00 2.035000086E+00 4.958677769E+00 5.355371952E+00 1.785124063E+00
 4.561983585E+00 4.085000038E+00 4.085000038E+00 3.768595219E+00 2.578512430E+00
 2.035000086E+00 2.035000086E+00 4.958677769E+00 4.085000038E+00 4.561983585E+00
 3.371901035E+00 3.371901035E+00 4.085000038E+00 -8.925620079E+00 -8.528925896E+00
 -8.528925896E+00 -8.925620079E+00 -9.322314262E+00 -9.322314262E+00 -9.091575623E+00
 -8.528925896E+00 -8.132231712E+00 -7.735537529E+00 -7.735537529E+00 -8.132231712E+00
 -8.132231712E+00 -9.322314262E+00 -8.925620079E+00 -8.528925896E+00 -7.338843346E+00
 -7.338843346E+00 -7.735537529E+00 -8.132231712E+00 -9.322314262E+00 -9.322314262E+00
 -8.528925896E+00 -8.925620079E+00 -7.338843346E+00 -7.735537529E+00 -8.132231712E+00
 -9.322314262E+00 -8.925620079E+00 -8.528925896E+00 -6.942149162E+00 -6.942149162E+00
 -7.338843346E+00 -7.735537529E+00 -8.132231712E+00 -9.322314262E+00 -8.925620079E+00
 -8.528925896E+00 -6.545454979E+00 -6.545454979E+00 -6.942149162E+00 -7.338843346E+00
 -7.735537529E+00 -8.132231712E+00 -9.322314262E+00 -8.925620079E+00 -8.528925896E+00
 -6.148760796E+00 -6.148760796E+00 -6.545454979E+00 -6.942149162E+00 -7.338843346E+00
 -7.735537529E+00 -8.132231712E+00 -5.752066612E+00 -5.752066612E+00 -6.148760319E+00
 -6.545454979E+00 -6.942149162E+00 -7.338843346E+00 -7.735537529E+00 -5.355372429E+00
 -5.355372429E+00 -5.752066135E+00 -6.148760319E+00 -6.545454979E+00 -6.942149162E+00
 -7.338843346E+00 -4.958677769E+00 -4.958677769E+00 -5.355371952E+00 -5.752066135E+00
 -6.148760319E+00 -6.545454979E+00 -6.942149162E+00 -4.958677769E+00 -5.355371952E+00
 -5.752066135E+00 -6.148760319E+00 -6.545454979E+00 -7.338843346E+00 -6.942149162E+00
 -5.355371952E+00 -5.752066135E+00 -6.148760319E+00 -6.545454979E+00 -4.958677769E+00
 -4.958677769E+00 -5.752066135E+00 -6.148760319E+00 -5.355371952E+00 -5.355372429E+00
 -5.752066135E+00 -5.355371952E+00 -6.148760319E+00 -5.752066135E+00 2.090157509E+01
 2.090157509E+01 2.042975426E+01 2.042975426E+01 2.003305817E+01 2.003305817E+01
 2.090157509E+01 2.042975235E+01 2.090157509E+01 2.042975426E+01 2.003305817E+01
 1.963636398E+01 1.963636398E+01 2.003305817E+01 2.090157509E+01 2.042975235E+01
 2.003305817E+01 1.963636398E+01 1.923966980E+01 1.923966980E+01 1.963636398E+01
 2.090157509E+01 2.042975235E+01 2.003305817E+01 1.963636398E+01 1.923966980E+01
 1.884297562E+01 1.884297562E+01 1.923966980E+01 2.090157509E+01 2.042975235E+01
 2.003305817E+01 1.963636398E+01 1.923966980E+01 1.884297562E+01 1.844628143E+01
 1.844628143E+01 1.884297562E+01 2.090157509E+01 2.042975235E+01 2.003305817E+01
 1.963636398E+01 1.923966980E+01 1.884297562E+01 1.844628143E+01 1.804958725E+01
 1.804958725E+01 1.844628143E+01 2.090157509E+01 2.042975426E+01 1.963636398E+01
 2.003305817E+01 1.923966980E+01 1.884297562E+01 1.844628143E+01 1.804958725E+01
 1.765289307E+01 1.765289307E+01 1.804958725E+01 2.042975426E+01 2.090157509E+01
 2.090157509E+01 2.042975426E+01 1.923966980E+01 1.963636398E+01 2.003305817E+01
 2.003305817E+01 1.884297562E+01 1.844628143E+01 1.804958725E+01 1.765289307E+01
 1.725619888E+01 1.725619888E+01 1.765289307E+01 2.090157509E+01 2.042975235E+01
 1.884297562E+01 1.923966980E+01 1.963636398E+01 1.963636398E+01 2.003305817E+01
 1.844628143E+01 1.804958725E+01 1.765289307E+01 1.725619888E+01 1.680657578E+01
 1.680657578E+01 1.725619888E+01 2.090157509E+01 2.042975235E+01 1.844628143E+01
 1.884297562E+01 1.923966980E+01 1.923966980E+01 1.963636398E+01 2.003305817E+01
 1.804958725E+01 1.765289307E+01 1.725619888E+01 1.680657578E+01 1.680657578E+01
 2.090157509E+01 2.042975235E+01 1.804958725E+01 1.844628143E+01 1.884297562E+01
 1.884297562E+01 1.923966980E+01 1.963636398E+01 2.003305817E+01 1.765289307E+01
 1.725619888E+01 1.680657578E+01 2.090157509E+01 2.042975235E+01 1.765289307E+01
 1.804958725E+01 1.844628143E+01 1.844628143E+01 1.884297562E+01 1.923966980E+01
 1.963636398E+01 2.003305817E+01 1.725619888E+01 1.680657578E+01 2.090157509E+01
 2.042975235E+01 1.725619888E+01 1.765289307E+01 1.804958725E+01 1.804958725E+01
 1.844628143E+01 1.884297562E+01 1.923966980E+01 1.963636398E+01 2.003305817E+01
 1.680657578E+01 2.090157509E+01 2.042975235E+01 1.725619888E+01 1.680657578E+01
 1.765289307E+01 1.765289307E+01 1.804958725E+01 1.844628143E+01 1.884297562E+01
 1.923966980E+01 1.963636398E+01 2.003305817E+01 2.090157509E+01 2.042975426E+01
 1.680657578E+01 1.725619888E+01 1.725619888E+01 1.765289307E+01 1.804958725E+01
 1.844628143E+01 1.884297562E+01 1.923966980E+01 1.963636398E+01 2.003305817E+01
 1.680657578E+01 1.680657578E+01 1.725619888E+01 1.765289307E+01 1.804958725E+01
 1.844628143E+01 1.884297562E+01 1.923966980E+01 1.963636398E+01 1.680657578E+01
 1.725619888E+01 1.765289307E+01 1.804958725E+01 1.844628143E+01 1.884297562E+01
 1.923966980E+01 1.680657578E+01 1.725619888E+01 1.765289307E+01 1.804958725E+01
 1.844628143E+01 1.884297562E+01 1.680657578E+01 1.725619888E+01 1.765289307E+01
 1.804958725E+01 1.844628143E+01 1.680657578E+01 1.725619888E+01 1.765289307E+01
 1.804958725E+01 1.680657578E+01 1.725619888E+01 1.765289307E+01 1.680657578E+01
 1.725619888E+01 1.680657578E+01 9.719008446E+00 9.322314262E+00 9.322314262E+00
 9.719008446E+00 9.322314262E+00 9.719008446E+00 1.011570263E+01 1.011570263E+01
 9.322314262E+00 9.719008446E+00 1.011570263E+01 1.051239777E+01 1.051239777E+01
 9.322314262E+00 9.719008446E+00 1.011570263E+01 1.051239777E+01 1.090909195E+01
 1.090909195E+01 9.322314262E+00 9.719008446E+00 8.925620079E+00 8.925620079E+00
 1.011570263E+01 1.051239777E+01 1.090909195E+01 1.130578613E+01 1.130578613E+01
 9.322314262E+00 9.719008446E+00 8.925620079E+00 1.011570263E+01 1.051239777E+01
 1.090909195E+01 1.130578613E+01 1.170248032E+01 1.170248032E+01 8.925620079E+00
 1.011570263E+01 9.719008446E+00 9.322314262E+00 1.051239777E+01 1.090909195E+01
 1.130578613E+01 1.170248032E+01 1.209917450E+01 1.209917450E+01 8.760000229E+00
 1.051239777E+01 9.939200401E+00 9.322314262E+00 9.719008446E+00 9.719008446E+00
 9.322314262E+00 1.090909195E+01 1.130578613E+01 1.170248032E+01 1.209917450E+01
 1.249586868E+01 1.249586868E+01 8.528925896E+00 8.528925896E+00 8.925620079E+00
 1.090909195E+01 1.051239681E+01 9.939200401E+00 1.011570263E+01 9.322314262E+00
 9.719008446E+00 1.130578613E+01 1.170248032E+01 1.209917450E+01 1.249586868E+01
 1.289256287E+01 1.289256287E+01 8.528925896E+00 8.925620079E+00 1.130578613E+01
 1.090909100E+01 1.051239681E+01 1.051239777E+01 1.011570263E+01 9.322314262E+00
 9.719008446E+00 1.170248032E+01 1.209917450E+01 1.249586868E+01 1.289256287E+01
 1.328925705E+01 1.328925705E+01 8.528925896E+00 8.132231712E+00 8.132231712E+00
 8.925620079E+00 1.161758995E+01 1.170248032E+01 1.115031624E+01 1.090909100E+01
 1.090909195E+01 1.051239777E+01 1.011570263E+01 9.719008446E+00 9.322314262E+00
 1.209917450E+01 1.249586868E+01 1.289256287E+01 1.328925705E+01 1.368595123E+01
 1.368595123E+01 8.528925896E+00 8.132231712E+00 7.610000134E+00 7.735537529E+00
 8.925620079E+00 1.209917450E+01 1.146500015E+01 1.150608063E+01 1.115031624E+01
 1.094757175E+01 1.112819481E+01 1.090909195E+01 1.100279903E+01 1.051239777E+01
 1.011570263E+01 9.322314262E+00 9.719008446E+00 9.520661354E+00 1.249586868E+01
 1.289256287E+01 1.328925705E+01 1.368595123E+01 1.408264542E+01 1.408264542E+01
 8.528925896E+00 8.132231712E+00 7.735537529E+00 8.925620079E+00 9.123967171E+00
 1.209917450E+01 1.249586868E+01 1.146500015E+01 1.146500015E+01 1.146500015E+01
 1.170247936E+01 1.133746243E+01 1.090909195E+01 1.146500015E+01 1.146500015E+01
 1.051239777E+01 1.011570263E+01 9.917355537E+00 9.322314262E+00 9.520661354E+00
 9.719008446E+00 1.289256287E+01 1.328925705E+01 1.368595123E+01 1.408264542E+01
 1.447933960E+01 1.447933960E+01 8.528925896E+00 8.132231712E+00 7.735537529E+00
 8.925620079E+00 9.123967171E+00 1.170248032E+01 1.209917450E+01 1.249586868E+01
 1.289256287E+01 1.146500015E+01 1.090909195E+01 1.146500015E+01 1.170248032E+01
 1.146500015E+01 1.051239681E+01 1.031404972E+01 9.917355537E+00 1.011570263E+01
 9.520661354E+00 9.322314262E+00 9.719008446E+00 1.328925705E+01 1.368595123E+01
 1.408264542E+01 1.447933960E+01 1.487603378E+01 1.487603378E+01 8.528925896E+00
 8.925620079E+00 8.727272987E+00 8.132231712E+00 7.735537529E+00 9.123967171E+00
 1.209917450E+01 1.249586868E+01 1.289256287E+01 1.328925705E+01 1.090909195E+01
 1.090909100E+01 1.071074390E+01 1.146500015E+01 1.170248032E+01 1.031404972E+01
 1.051239681E+01 9.917355537E+00 1.011570263E+01 9.322314262E+00 9.520661354E+00
 9.719008446E+00 1.368595123E+01 1.408264542E+01 1.447933960E+01 1.487603378E+01
 1.527272797E+01 1.527272797E+01 8.132231712E+00 8.528925896E+00 8.727272987E+00
 8.925620079E+00 7.735537529E+00 9.123967171E+00 1.209917450E+01 1.249586868E+01
 1.289256287E+01 1.328925705E+01 1.368595123E+01 1.071074390E+01 1.090909100E+01
 1.146500015E+01 1.143272018E+01 1.135311317E+01 1.138539314E+01 1.112724876E+01
 1.158374023E+01 1.170247936E+01 1.031404972E+01 1.051239681E+01 9.917355537E+00
 1.011570263E+01 9.520661354E+00 9.322314262E+00 9.719008446E+00 1.408264542E+01
 1.447933960E+01 1.487603378E+01 1.527272797E+01 1.566942215E+01 1.566942215E+01
 8.528925896E+00 8.132231712E+00 7.735537529E+00 8.727272987E+00 8.925620079E+00
 9.123967171E+00 1.209917355E+01 1.249586868E+01 1.289256287E+01 1.328925705E+01
 1.368595123E+01 1.408264542E+01 1.071074390E+01 1.090909100E+01 1.110743809E+01
 1.135311317E+01 1.146500015E+01 1.146500015E+01 1.146500015E+01 1.157383537E+01
 1.151419163E+01 1.170247936E+01 1.031404972E+01 1.051239681E+01 9.917355537E+00
 1.011570263E+01 9.322314262E+00 9.520661354E+00 9.719008446E+00 1.447933960E+01
 1.487603378E+01 1.527272797E+01 1.566942215E+01 1.606611633E+01 1.606611633E+01
 9.520661354E+00 9.322314262E+00 9.719008446E+00 8.528925896E+00 8.132231712E+00
 8.528925896E+00 7.735537529E+00 8.727272987E+00 8.925620079E+00 9.123967171E+00
 1.249586868E+01 1.201428413E+01 1.178736973E+01 1.289256287E+01 1.328925705E+01
 1.368595123E+01 1.408264542E+01 1.447933960E+01 1.071074390E+01 1.090909100E+01
 1.110743809E+01 1.135311317E+01 1.146500015E+01 1.170247936E+01 1.170247936E+01
 1.178736973E+01 1.031404972E+01 1.051239681E+01 9.917355537E+00 1.011570263E+01
 1.487603378E+01 1.527272797E+01 1.566942215E+01 1.606611633E+01 1.646281052E+01
 1.646281052E+01 1.178736973E+01 1.201428413E+01 9.123967171E+00 8.925620079E+00
 9.917355537E+00 1.011570263E+01 9.520661354E+00 9.520661354E+00 9.322314262E+00
 9.322314262E+00 9.719008446E+00 9.719008446E+00 8.528925896E+00 8.132231712E+00
 8.528925896E+00 7.735537529E+00 8.727272987E+00 1.209917355E+01 1.249586868E+01
 1.289256287E+01 1.328925705E+01 1.368595123E+01 1.408264542E+01 1.447933960E+01
 1.487603378E+01 1.071074390E+01 1.090909100E+01 1.110743809E+01 1.134540558E+01
 1.146500015E+01 1.170247936E+01 1.031404972E+01 1.051239681E+01 1.527272797E+01
 1.566942215E+01 1.606611633E+01 1.646281052E+01 1.680657578E+01 1.680657578E+01
 1.209917450E+01 1.170247936E+01 9.123967171E+00 9.123967171E+00 8.925620079E+00
 8.925620079E+00 1.031404972E+01 1.051239681E+01 9.917355537E+00 9.917355537E+00
 1.011570263E+01 1.011570263E+01 9.520661354E+00 9.520661354E+00 9.322314262E+00
 9.322314262E+00 9.719008446E+00 9.719008446E+00 8.528925896E+00 8.132231712E+00
 8.528925896E+00 7.735537529E+00 8.727272987E+00 8.727272987E+00 1.249586868E+01
 1.289256287E+01 1.328925705E+01 1.368595123E+01 1.408264542E+01 1.447933960E+01
 1.487603378E+01 1.527272797E+01 1.071074390E+01 1.090909100E+01 1.110743809E+01
 1.133985615E+01 1.146500015E+01 1.566942215E+01 1.606611633E+01 1.646281052E+01
 1.680657578E+01 1.170247936E+01 1.209917450E+01 1.170247936E+01 9.322314262E+00
 8.925620079E+00 8.925620079E+00 9.322314262E+00 8.925620079E+00 9.322314262E+00
 9.123967171E+00 8.925620079E+00 9.123967171E+00 1.071074390E+01 1.090909100E+01
 1.031404972E+01 1.031404972E+01 1.051239681E+01 1.051239681E+01 9.917355537E+00
 9.917355537E+00 1.011570263E+01 1.011570263E+01 9.719008446E+00 9.719008446E+00
 9.520661354E+00 9.520661354E+00 9.719008446E+00 8.528925896E+00 8.132231712E+00
 8.727272987E+00 8.727272987E+00 1.249586868E+01 1.289256287E+01 1.328925705E+01
 1.368595123E+01 1.408264542E+01 1.447933960E+01 1.487603378E+01 1.527272797E+01
 1.566942215E+01 1.110743809E+01 1.133985615E+01 1.146500015E+01 1.146500015E+01
 1.606611633E+01 1.646281052E+01 1.680657578E+01 1.170247936E+01 1.209917450E+01
 1.170247936E+01 1.146500015E+01 8.528925896E+00 1.133985615E+01 1.110743809E+01
 1.071074390E+01 1.071074390E+01 1.090909100E+01 1.090909100E+01 1.031404972E+01
 1.031404972E+01 1.051239681E+01 1.051239681E+01 1.011570263E+01 1.011570263E+01
 9.917355537E+00 9.917355537E+00 1.011570263E+01 8.132231712E+00 1.249586868E+01
 1.289256287E+01 1.328925705E+01 1.368595123E+01 1.408264542E+01 1.447933960E+01
 1.487603378E+01 1.527272797E+01 1.566942215E+01 1.606611633E+01 1.146500015E+01
 1.646281052E+01 1.680657578E+01 1.170247936E+01 1.209917450E+01 1.170247936E+01
 1.146500015E+01 1.146500015E+01 1.090909100E+01 1.071074390E+01 1.090909195E+01
 1.051239681E+01 1.051239681E+01 1.051239777E+01 1.011570263E+01 1.133985615E+01
 1.110743809E+01 1.146500015E+01 1.133985615E+01 1.110743809E+01 1.071074390E+01
 1.071074390E+01 1.090909100E+01 1.090909100E+01 1.031404972E+01 1.031404972E+01
 1.051239681E+01 1.249586868E+01 1.289256287E+01 1.328925705E+01 1.368595123E+01
 1.408264542E+01 1.447933960E+01 1.487603378E+01 1.527272797E+01 1.566942215E+01
 1.606611633E+01 1.646281052E+01 1.170247936E+01 1.209917355E+01 1.170247936E+01
 1.146500015E+01 1.146500015E+01 1.146500015E+01 1.146500015E+01 1.090909195E+01
 1.071074390E+01 1.082420063E+01 1.079563427E+01 1.082420063E+01 1.079563427E+01
 1.146500015E+01 1.133985615E+01 1.110743809E+01 1.146500015E+01 1.133985615E+01
 1.112447357E+01 1.146500015E+01 1.141946411E+01 1.090909100E+01 1.090909100E+01
 1.138539314E+01 1.249586868E+01 1.289256287E+01 1.328925705E+01 1.368595123E+01
 1.408264542E+01 1.447933960E+01 1.487603378E+01 1.527272797E+01 1.566942215E+01
 1.606611633E+01 1.646281052E+01 1.146500015E+01 1.146500015E+01 1.178736973E+01
 1.201428413E+01 1.178736973E+01 1.178736973E+01 1.201428413E+01 1.146500015E+01
 1.158374023E+01 1.170248032E+01 1.146500015E+01 1.170247936E+01 1.146500015E+01
 1.051239681E+01 1.090909195E+01 1.146500015E+01 1.146500015E+01 1.146500015E+01
 1.146500015E+01 1.146500015E+01 1.157522202E+01 1.209917355E+01 1.249586868E+01
 1.289256287E+01 1.328925705E+01 1.368595123E+01 1.408264542E+01 1.447933960E+01
 1.487603378E+01 1.527272797E+01 1.566942215E+01 1.606611633E+01 1.646281052E+01
 1.680657578E+01 1.170247936E+01 1.146500015E+01 1.150730133E+01 1.170247936E+01
 1.209917450E+01 1.146500015E+01 1.170248032E+01 1.146500015E+01 1.146500015E+01
 1.051239681E+01 1.090909195E+01 1.249586868E+01 1.289256287E+01 1.328925705E+01
 1.368595123E+01 1.408264542E+01 1.447933960E+01 1.487603378E+01 1.527272797E+01
 1.566942215E+01 1.606611633E+01 1.646281052E+01 1.680657578E+01 1.209917450E+01
 1.146500015E+01 1.170248032E+01 1.146500015E+01 1.249586868E+01 1.289256287E+01
 1.328925705E+01 1.368595123E+01 1.408264542E+01 1.447933960E+01 1.487603378E+01
 1.527272797E+01 1.566942215E+01 1.606611633E+01 1.646281052E+01 1.680657578E+01
 1.209917450E+01 1.146500015E+01 1.170248032E+01 1.249586868E+01 1.289256287E+01
 1.328925705E+01 1.368595123E+01 1.408264542E+01 1.447933960E+01 1.487603378E+01
 1.527272797E+01 1.566942215E+01 1.606611633E+01 1.646281052E+01 1.680657578E+01
 1.209917450E+01 1.146500015E+01 1.170248032E+01 1.249586868E+01 1.289256287E+01
 1.328925705E+01 1.368595123E+01 1.408264542E+01 1.447933960E+01 1.487603378E+01
 1.527272797E+01 1.566942215E+01 1.606611633E+01 1.646281052E+01 1.209917450E+01
 1.289256287E+01 1.328925705E+01 1.368595123E+01 1.408264542E+01 1.447933960E+01
 1.487603378E+01 1.527272797E+01 1.566942215E+01 1.606611633E+01 1.646281052E+01
 1.368595123E+01 1.408264542E+01 1.447933960E+01 1.487603378E+01 1.527272797E+01
 1.566942215E+01 1.606611633E+01 1.646281052E+01 1.680657578E+01 1.447933960E+01
 1.487603378E+01 1.527272797E+01 1.566942215E+01 1.606611633E+01 1.646281052E+01
 1.680657578E+01 1.487603378E+01 1.527272797E+01 1.566942215E+01 1.606611633E+01
 1.646281052E+01 1.680657578E+01 1.527272797E+01 1.566942215E+01 1.606611633E+01
 1.646281052E+01 1.680657578E+01 1.566942215E+01 1.606611633E+01 1.646281052E+01
 1.680657578E+01 1.606611633E+01 1.646281052E+01 -1.680657578E+01 -1.680657578E+01
 -1.725619888E+01 -1.725619888E+01 -1.680657578E+01 -1.725619888E+01 -1.765289307E+01
 -1.765289307E+01 -1.765289307E+01 -1.680657578E+01 -1.725619888E+01 -1.804958725E+01
 -1.804958725E+01 -1.765289307E+01 -1.804958725E+01 -1.680657578E+01 -1.725619888E+01
 -1.844628143E+01 -1.844628143E+01 -1.804958725E+01 -1.765289307E+01 -1.844628143E+01
 -1.725619888E+01 -1.680657578E+01 -1.680657578E+01 -1.725619888E+01 -1.884297562E+01
 -1.884297562E+01 -1.844628143E+01 -1.804958725E+01 -1.765289307E+01 -1.765289307E+01
 -1.884297562E+01 -1.680657578E+01 -1.725619888E+01 -1.923966980E+01 -1.923966980E+01
 -1.884297562E+01 -1.844628143E+01 -1.804958725E+01 -1.804958725E+01 -1.765289307E+01
 -1.923966980E+01 -1.680657578E+01 -1.725619888E+01 -1.963636398E+01 -1.963636398E+01
 -1.923966980E+01 -1.884297562E+01 -1.844628143E+01 -1.844628143E+01 -1.804958725E+01
 -1.765289307E+01 -1.963636398E+01 -1.680657578E+01 -1.725619888E+01 -2.003305817E+01
 -2.003305817E+01 -1.963636398E+01 -1.923966980E+01 -1.884297562E+01 -1.884297562E+01
 -1.844628143E+01 -1.804958725E+01 -1.765289307E+01 -2.003305817E+01 -1.725619888E+01
 -1.680657578E+01 -1.680657578E+01 -1.725619888E+01 -2.042975235E+01 -2.042975426E+01
 -2.003305817E+01 -1.963636398E+01 -1.923966980E+01 -1.923966980E+01 -1.884297562E+01
 -1.844628143E+01 -1.804958725E+01 -1.765289307E+01 -1.765289307E+01 -2.042975426E+01
 -1.680657578E+01 -1.725619888E+01 -2.090157509E+01 -2.090157509E+01 -2.042975426E+01
 -2.003305817E+01 -1.963636398E+01 -1.963636398E+01 -1.923966980E+01 -1.884297562E+01
 -1.844628143E+01 -1.804958725E+01 -1.804958725E+01 -1.765289307E+01 -2.090157509E+01
 -2.090157509E+01 -1.680657578E+01 -1.725619888E+01 -2.138424110E+01 -2.090157509E+01
 -2.090157509E+01 -2.132571411E+01 -2.042975426E+01 -2.090157509E+01 -2.003305817E+01
 -2.003305817E+01 -1.963636398E+01 -1.923966980E+01 -1.884297562E+01 -1.844628143E+01
 -1.844628143E+01 -1.804958725E+01 -1.765289307E+01 -2.126021957E+01 -2.139703178E+01
 -2.090157509E+01 -2.090157509E+01 -1.680657578E+01 -1.725619888E+01 -2.042975235E+01
 -2.042975426E+01 -2.090157509E+01 -2.122314072E+01 -2.090157509E+01 -2.122314262E+01
 -2.003305817E+01 -1.963636398E+01 -1.923966980E+01 -1.884297562E+01 -1.884297562E+01
 -1.844628143E+01 -1.804958725E+01 -1.765289307E+01 -2.144329643E+01 -1.680657578E+01
 -1.725619888E+01 -2.042975235E+01 -2.090157509E+01 -2.090157509E+01 -2.090157509E+01
 -2.122314072E+01 -2.150231171E+01 -2.145595551E+01 -2.003305817E+01 -1.963636398E+01
 -1.923966980E+01 -1.923966980E+01 -1.884297562E+01 -1.844628143E+01 -1.804958725E+01
 -1.765289307E+01 -1.680657578E+01 -1.725619888E+01 -2.042975235E+01 -2.090157509E+01
 -2.090157509E+01 -2.122314072E+01 -2.156060982E+01 -2.003305817E+01 -1.963636398E+01
 -1.963636398E+01 -1.923966980E+01 -1.884297562E+01 -1.844628143E+01 -1.804958725E+01
 -1.765289307E+01 -1.680657578E+01 -1.725619888E+01 -2.042975426E+01 -2.090157509E+01
 -2.090157509E+01 -2.122314072E+01 -2.161882591E+01 -2.003305817E+01 -2.003305817E+01
 -1.963636398E+01 -1.923966980E+01 -1.884297562E+01 -1.844628143E+01 -1.804958725E+01
 -1.765289307E+01 -1.680657578E+01 -1.725619888E+01 -2.042975235E+01 -2.042975426E+01
 -2.090157509E+01 -2.090157509E+01 -2.122314072E+01 -2.167628098E+01 -2.003305817E+01
 -1.963636398E+01 -1.923966980E+01 -1.884297562E+01 -1.844628143E+01 -1.804958725E+01
 -1.765289307E+01 -1.725619888E+01 -1.680657578E+01 -1.680657578E+01 -1.725619888E+01
 -2.042975235E+01 -2.090157509E+01 -2.090157509E+01 -2.090157509E+01 -2.122314072E+01
 -2.173351288E+01 -2.003305817E+01 -1.963636398E+01 -1.923966980E+01 -1.884297562E+01
 -1.844628143E+01 -1.804958725E+01 -1.765289307E+01 -1.765289307E+01 -1.680657578E+01
 -1.725619888E+01 -2.042975235E+01 -2.090157509E+01 -2.122314072E+01 -2.090157509E+01
 -2.122314072E+01 -2.178990555E+01 -2.003305817E+01 -1.963636398E+01 -1.923966980E+01
 -1.884297562E+01 -1.844628143E+01 -1.804958725E+01 -1.804958725E+01 -1.765289307E+01
 -1.680657578E+01 -1.725619888E+01 -2.042975235E+01 -2.090157509E+01 -2.090157509E+01
 -2.122314072E+01 -2.165882301E+01 -2.180188179E+01 -2.003305817E+01 -1.963636398E+01
 -1.923966980E+01 -1.884297562E+01 -1.844628143E+01 -1.844628143E+01 -1.804958725E+01
 -1.765289307E+01 -1.680657578E+01 -1.725619888E+01 -2.042975235E+01 -2.090157509E+01
 -2.090157509E+01 -2.122314072E+01 -2.161983490E+01 -2.161983681E+01 -2.184573936E+01
 -2.003305817E+01 -1.963636398E+01 -1.923966980E+01 -1.884297562E+01 -1.884297562E+01
 -1.844628143E+01 -1.804958725E+01 -1.765289307E+01 -1.680657578E+01 -1.725619888E+01
 -2.042975235E+01 -2.090157509E+01 -2.090157509E+01 -2.122314072E+01 -2.161983681E+01
 -2.190069199E+01 -2.185771179E+01 -2.003305817E+01 -1.963636398E+01 -1.923966980E+01
 -1.923966980E+01 -1.884297562E+01 -1.844628143E+01 -1.804958725E+01 -1.765289307E+01
 -1.680657578E+01 -1.725619888E+01 -2.042975235E+01 -2.090157509E+01 -2.090157509E+01
 -2.122314072E+01 -2.161983681E+01 -2.195518494E+01 -2.003305817E+01 -1.963636398E+01
 -1.963636398E+01 -1.923966980E+01 -1.884297562E+01 -1.844628143E+01 -1.804958725E+01
 -1.765289307E+01 -1.680657578E+01 -1.725619888E+01 -2.042975426E+01 -2.090157509E+01
 -2.090157509E+01 -2.122314072E+01 -2.161983681E+01 -2.200836182E+01 -2.003305817E+01
 -2.003305817E+01 -1.963636398E+01 -1.923966980E+01 -1.884297562E+01 -1.844628143E+01
 -1.804958725E+01 -1.765289307E+01 -1.680657578E+01 -1.725619888E+01 -2.042975235E+01
 -2.042975426E+01 -2.090157509E+01 -2.090157509E+01 -2.122314072E+01 -2.161983681E+01
 -2.206097031E+01 -2.003305817E+01 -1.963636398E+01 -1.923966980E+01 -1.884297562E+01
 -1.844628143E+01 -1.804958725E+01 -1.765289307E+01 -1.725619888E+01 -1.680657578E+01
 -1.680657578E+01 -1.725619888E+01 -2.042975235E+01 -2.090157509E+01 -2.090157509E+01
 -2.090157509E+01 -2.122314072E+01 -2.161983681E+01 -2.211214256E+01 -2.003305817E+01
 -1.963636398E+01 -1.923966980E+01 -1.884297562E+01 -1.844628143E+01 -1.804958725E+01
 -1.765289307E+01 -1.765289307E+01 -1.680657578E+01 -1.725619888E+01 -2.042975235E+01
 -2.090157509E+01 -2.090157509E+01 -2.122314072E+01 -2.161983490E+01 -2.161983490E+01
 -2.216273880E+01 -2.003305817E+01 -1.963636398E+01 -1.923966980E+01 -1.884297562E+01
 -1.844628143E+01 -1.804958725E+01 -1.804958725E+01 -1.765289307E+01 -1.680657578E+01
 -1.725619888E+01 -2.042975235E+01 -2.090157509E+01 -2.090157509E+01 -2.122314072E+01
 -2.161983681E+01 -2.205014229E+01 -2.217352295E+01 -2.003305817E+01 -1.963636398E+01
 -1.923966980E+01 -1.884297562E+01 -1.844628143E+01 -1.844628143E+01 -1.804958725E+01
 -1.765289307E+01 -1.680657578E+01 -1.725619888E+01 -2.042975235E+01 -2.090157509E+01
 -2.090157509E+01 -2.122314072E+01 -2.161983681E+01 -2.201652908E+01 -2.201653099E+01
 -2.221183968E+01 -2.003305817E+01 -1.963636398E+01 -1.923966980E+01 -1.884297562E+01
 -1.884297562E+01 -1.844628143E+01 -1.804958725E+01 -1.765289307E+01 -1.680657578E+01
 -1.725619888E+01 -2.042975235E+01 -2.090157509E+01 -2.090157509E+01 -2.122314072E+01
 -2.161983681E+01 -2.201653099E+01 -2.226035309E+01 -2.222236824E+01 -2.003305817E+01
 -1.963636398E+01 -1.923966980E+01 -1.923966980E+01 -1.884297562E+01 -1.844628143E+01
 -1.804958725E+01 -1.765289307E+01 -1.680657578E+01 -1.725619888E+01 -2.042975235E+01
 -2.090157509E+01 -2.090157509E+01 -2.122314072E+01 -2.161983681E+01 -2.201653099E+01
 -2.230780792E+01 -2.003305817E+01 -1.963636398E+01 -1.963636398E+01 -1.923966980E+01
 -1.884297562E+01 -1.844628143E+01 -1.804958725E+01 -1.765289307E+01 -1.680657578E+01
 -1.725619888E+01 -2.042975426E+01 -2.090157509E+01 -2.090157509E+01 -2.122314072E+01
 -2.161983681E+01 -2.201653099E+01 -2.235408783E+01 -2.003305817E+01 -2.003305817E+01
 -1.963636398E+01 -1.923966980E+01 -1.884297562E+01 -1.844628143E+01 -1.804958725E+01
 -1.765289307E+01 -1.680657578E+01 -1.725619888E+01 -2.042975235E+01 -2.042975426E+01
 -2.090157509E+01 -2.090157509E+01 -2.122314072E+01 -2.161983681E+01 -2.201653099E+01
 -2.239907837E+01 -2.003305817E+01 -1.963636398E+01 -1.923966980E+01 -1.884297562E+01
 -1.844628143E+01 -1.804958725E+01 -1.765289307E+01 -1.725619888E+01 -1.680657578E+01
 -1.680657578E+01 -1.725619888E+01 -2.042975235E+01 -2.090157509E+01 -2.090157509E+01
 -2.090157509E+01 -2.122314072E+01 -2.161983681E+01 -2.201653099E+01 -2.244269753E+01
 -2.003305817E+01 -1.963636398E+01 -1.923966980E+01 -1.884297562E+01 -1.844628143E+01
 -1.804958725E+01 -1.765289307E+01 -1.765289307E+01 -1.680657578E+01 -1.725619888E+01
 -2.042975235E+01 -2.090157509E+01 -2.090157509E+01 -2.122314072E+01 -2.161983681E+01
 -2.201653099E+01 -2.248488998E+01 -2.003305817E+01 -1.963636398E+01 -1.923966980E+01
 -1.884297562E+01 -1.844628143E+01 -1.804958725E+01 -1.804958725E+01 -1.765289307E+01
 -1.680657578E+01 -1.725619888E+01 -2.042975235E+01 -2.090157509E+01 -2.090157509E+01
 -2.122314072E+01 -2.161983681E+01 -2.201653099E+01 -2.252563858E+01 -2.003305817E+01
 -1.963636398E+01 -1.923966980E+01 -1.884297562E+01 -1.844628143E+01 -1.844628143E+01
 -1.804958725E+01 -1.765289307E+01 -1.680657578E+01 -1.725619888E+01 -2.042975235E+01
 -2.090157509E+01 -2.090157509E+01 -2.122314072E+01 -2.161983681E+01 -2.201652908E+01
 -2.201652908E+01 -2.256497955E+01 -2.003305817E+01 -1.963636398E+01 -1.923966980E+01