TITLE     = "Tecplot Export"
VARIABLES =var-0
var-1
var-2
var-3
ZONE T="age of air"
Nodes=15272, Elements=28755
DATAPACKING=BLOCK
DT=(SINGLE SINGLE SINGLE SINGLE )
 7.338843e+00 6.942149e+00 6.942149e+00 7.338843e+00 7.735538e+00
 7.338843e+00 7.735538e+00 6.942149e+00 7.338843e+00 6.545455e+00
 6.545455e+00 7.735538e+00 6.942149e+00 8.132232e+00 8.132232e+00
 7.338843e+00 7.735538e+00 6.545455e+00 7.735538e+00 6.148760e+00
 6.148761e+00 6.545455e+00 8.132232e+00 6.942149e+00 8.132232e+00
 7.338843e+00 7.735538e+00 6.148761e+00 8.132232e+00 5.752066e+00
 5.752067e+00 6.148760e+00 6.545455e+00 6.942149e+00 7.338843e+00
 7.735538e+00 5.752067e+00 5.355372e+00 5.355372e+00 5.752066e+00
 6.148760e+00 6.545455e+00 6.942149e+00 7.338843e+00 7.735538e+00
 5.355372e+00 4.958678e+00 4.958678e+00 5.355372e+00 5.752066e+00
 6.148760e+00 6.545455e+00 6.942149e+00 7.338843e+00 7.735538e+00
 5.355372e+00 5.752067e+00 4.958678e+00 4.561984e+00 4.561984e+00
 4.958678e+00 5.355372e+00 5.752066e+00 6.148760e+00 6.545455e+00
 6.942149e+00 7.338843e+00 7.735538e+00 4.958678e+00 4.561984e+00
 4.561984e+00 4.085000e+00 4.085000e+00 4.958678e+00 5.355372e+00
 5.752066e+00 6.148760e+00 6.545455e+00 6.942149e+00 7.338843e+00
 7.735538e+00 4.561984e+00 4.085000e+00 4.561984e+00 4.085000e+00
 4.085000e+00 4.085000e+00 3.768595e+00 3.768595e+00 4.958678e+00
 5.355372e+00 5.752066e+00 6.148760e+00 6.545455e+00 6.942149e+00
 7.338843e+00 7.735538e+00 4.085000e+00 4.085000e+00 3.768595e+00
 4.561984e+00 4.085000e+00 4.085000e+00 3.768595e+00 3.371901e+00
 3.371901e+00 4.958678e+00 5.355372e+00 5.752066e+00 6.148760e+00
 6.545455e+00 6.942149e+00 7.338843e+00 7.735538e+00 4.085000e+00
 3.768595e+00 4.085000e+00 4.561984e+00 3.371901e+00 4.561984e+00
 4.085000e+00 4.085000e+00 3.768595e+00 3.371901e+00 2.975207e+00
 2.975207e+00 4.958678e+00 5.355372e+00 5.752066e+00 6.148760e+00
 6.545455e+00 6.942149e+00 7.338843e+00 7.610000e+00 3.371901e+00
 3.768595e+00 4.085000e+00 4.085000e+00 3.768595e+00 2.975207e+00
 4.561984e+00 4.085000e+00 3.768595e+00 4.085000e+00 3.371901e+00
 2.975207e+00 2.578512e+00 2.578513e+00 4.958678e+00 5.355372e+00
 5.752066e+00 6.148760e+00 6.545455e+00 6.942149e+00 2.975207e+00
 3.371901e+00 3.371901e+00 2.578513e+00 4.561984e+00 4.085000e+00
 4.085000e+00 3.768595e+00 3.768595e+00 4.085000e+00 3.371901e+00
 2.975207e+00 2.578512e+00 2.035000e+00 2.035000e+00 4.958678e+00
 5.355372e+00 5.752066e+00 6.148760e+00 6.545455e+00 2.578513e+00
 2.975207e+00 2.975207e+00 2.035000e+00 4.561984e+00 4.085000e+00
 3.768595e+00 4.085000e+00 3.371901e+00 3.371901e+00 2.975207e+00
 2.578512e+00 2.035000e+00 1.785124e+00 1.785124e+00 4.958678e+00
 5.355372e+00 5.752066e+00 6.148760e+00 2.035000e+00 2.578512e+00
 2.578513e+00 2.035000e+00 1.785124e+00 4.561984e+00 4.085000e+00
 4.085000e+00 3.768595e+00 3.371901e+00 2.975207e+00 2.975207e+00
 2.578512e+00 2.035000e+00 4.958678e+00 5.355372e+00 5.752066e+00
 2.035000e+00 1.785124e+00 2.181818e+00 4.561984e+00 4.085000e+00
 4.085000e+00 3.768595e+00 3.371901e+00 2.975207e+00 2.578512e+00
 2.578513e+00 2.035000e+00 4.958678e+00 5.355372e+00 1.785124e+00
 4.561984e+00 4.085000e+00 4.085000e+00 3.768595e+00 2.578512e+00
 2.035000e+00 2.035000e+00 4.958678e+00 4.085000e+00 4.561984e+00
 3.371901e+00 3.371901e+00 4.085000e+00 -8.925620e+00 -8.528926e+00
 -8.528926e+00 -8.925620e+00 -9.322314e+00 -9.322314e+00 -9.091576e+00
 -8.528926e+00 -8.132232e+00 -7.735538e+00 -7.735538e+00 -8.132232e+00
 -8.132232e+00 -9.322314e+00 -8.925620e+00 -8.528926e+00 -7.338843e+00
 -7.338843e+00 -7.735538e+00 -8.132232e+00 -9.322314e+00 -9.322314e+00
 -8.528926e+00 -8.925620e+00 -7.338843e+00 -7.735538e+00 -8.132232e+00
 -9.322314e+00 -8.925620e+00 -8.528926e+00 -6.942149e+00 -6.942149e+00
 -7.338843e+00 -7.735538e+00 -8.132232e+00 -9.322314e+00 -8.925620e+00
 -8.528926e+00 -6.545455e+00 -6.545455e+00 -6.942149e+00 -7.338843e+00
 -7.735538e+00 -8.132232e+00 -9.322314e+00 -8.925620e+00 -8.528926e+00
 -6.148761e+00 -6.148761e+00 -6.545455e+00 -6.942149e+00 -7.338843e+00
 -7.735538e+00 -8.132232e+00 -5.752067e+00 -5.752067e+00 -6.148760e+00
 -6.545455e+00 -6.942149e+00 -7.338843e+00 -7.735538e+00 -5.355372e+00
 -5.355372e+00 -5.752066e+00 -6.148760e+00 -6.545455e+00 -6.942149e+00
 -7.338843e+00 -4.958678e+00 -4.958678e+00 -5.355372e+00 -5.752066e+00
 -6.148760e+00 -6.545455e+00 -6.942149e+00 -4.958678e+00 -5.355372e+00
 -5.752066e+00 -6.148760e+00 -6.545455e+00 -7.338843e+00 -6.942149e+00
 -5.355372e+00 -5.752066e+00 -6.148760e+00 -6.545455e+00 -4.958678e+00
 -4.958678e+00 -5.752066e+00 -6.148760e+00 -5.355372e+00 -5.355372e+00
 -5.752066e+00 -5.355372e+00 -6.148760e+00 -5.752066e+00 2.090158e+01
 2.090158e+01 2.042975e+01 2.042975e+01 2.003306e+01 2.003306e+01
 2.090158e+01 2.042975e+01 2.090158e+01 2.042975e+01 2.003306e+01
 1.963636e+01 1.963636e+01 2.003306e+01 2.090158e+01 2.042975e+01
 2.003306e+01 1.963636e+01 1.923967e+01 1.923967e+01 1.963636e+01
 2.090158e+01 2.042975e+01 2.003306e+01 1.963636e+01 1.923967e+01
 1.884298e+01 1.884298e+01 1.923967e+01 2.090158e+01 2.042975e+01
 2.003306e+01 1.963636e+01 1.923967e+01 1.884298e+01 1.844628e+01
 1.844628e+01 1.884298e+01 2.090158e+01 2.042975e+01 2.003306e+01
 1.963636e+01 1.923967e+01 1.884298e+01 1.844628e+01 1.804959e+01
 1.804959e+01 1.844628e+01 2.090158e+01 2.042975e+01 1.963636e+01
 2.003306e+01 1.923967e+01 1.884298e+01 1.844628e+01 1.804959e+01
 1.765289e+01 1.765289e+01 1.804959e+01 2.042975e+01 2.090158e+01
 2.090158e+01 2.042975e+01 1.923967e+01 1.963636e+01 2.003306e+01
 2.003306e+01 1.884298e+01 1.844628e+01 1.804959e+01 1.765289e+01
 1.725620e+01 1.725620e+01 1.765289e+01 2.090158e+01 2.042975e+01
 1.884298e+01 1.923967e+01 1.963636e+01 1.963636e+01 2.003306e+01
 1.844628e+01 1.804959e+01 1.765289e+01 1.725620e+01 1.680658e+01
 1.680658e+01 1.725620e+01 2.090158e+01 2.042975e+01 1.844628e+01
 1.884298e+01 1.923967e+01 1.923967e+01 1.963636e+01 2.003306e+01
 1.804959e+01 1.765289e+01 1.725620e+01 1.680658e+01 1.680658e+01
 2.090158e+01 2.042975e+01 1.804959e+01 1.844628e+01 1.884298e+01
 1.884298e+01 1.923967e+01 1.963636e+01 2.003306e+01 1.765289e+01
 1.725620e+01 1.680658e+01 2.090158e+01 2.042975e+01 1.765289e+01
 1.804959e+01 1.844628e+01 1.844628e+01 1.884298e+01 1.923967e+01
 1.963636e+01 2.003306e+01 1.725620e+01 1.680658e+01 2.090158e+01
 2.042975e+01 1.725620e+01 1.765289e+01 1.804959e+01 1.804959e+01
 1.844628e+01 1.884298e+01 1.923967e+01 1.963636e+01 2.003306e+01
 1.680658e+01 2.090158e+01 2.042975e+01 1.725620e+01 1.680658e+01
 1.765289e+01 1.765289e+01 1.804959e+01 1.844628e+01 1.884298e+01
 1.923967e+01 1.963636e+01 2.003306e+01 2.090158e+01 2.042975e+01
 1.680658e+01 1.725620e+01 1.725620e+01 1.765289e+01 1.804959e+01
 1.844628e+01 1.884298e+01 1.923967e+01 1.963636e+01 2.003306e+01
 1.680658e+01 1.680658e+01 1.725620e+01 1.765289e+01 1.804959e+01
 1.844628e+01 1.884298e+01 1.923967e+01 1.963636e+01 1.680658e+01
 1.725620e+01 1.765289e+01 1.804959e+01 1.844628e+01 1.884298e+01
 1.923967e+01 1.680658e+01 1.725620e+01 1.765289e+01 1.804959e+01
 1.844628e+01 1.884298e+01 1.680658e+01 1.725620e+01 1.765289e+01
 1.804959e+01 1.844628e+01 1.680658e+01 1.725620e+01 1.765289e+01
 1.804959e+01 1.680658e+01 1.725620e+01 1.765289e+01 1.680658e+01
 1.725620e+01 1.680658e+01 9.719008e+00 9.322314e+00 9.322314e+00
 9.719008e+00 9.322314e+00 9.719008e+00 1.011570e+01 1.011570e+01
 9.322314e+00 9.719008e+00 1.011570e+01 1.051240e+01 1.051240e+01
 9.322314e+00 9.719008e+00 1.011570e+01 1.051240e+01 1.090909e+01
 1.090909e+01 9.322314e+00 9.719008e+00 8.925620e+00 8.925620e+00
 1.011570e+01 1.051240e+01 1.090909e+01 1.130579e+01 1.130579e+01
 9.322314e+00 9.719008e+00 8.925620e+00 1.011570e+01 1.051240e+01
 1.090909e+01 1.130579e+01 1.170248e+01 1.170248e+01 8.925620e+00
 1.011570e+01 9.719008e+00 9.322314e+00 1.051240e+01 1.090909e+01
 1.130579e+01 1.170248e+01 1.209917e+01 1.209917e+01 8.760000e+00
 1.051240e+01 9.939200e+00 9.322314e+00 9.719008e+00 9.719008e+00
 9.322314e+00 1.090909e+01 1.130579e+01 1.170248e+01 1.209917e+01
 1.249587e+01 1.249587e+01 8.528926e+00 8.528926e+00 8.925620e+00
 1.090909e+01 1.051240e+01 9.939200e+00 1.011570e+01 9.322314e+00
 9.719008e+00 1.130579e+01 1.170248e+01 1.209917e+01 1.249587e+01
 1.289256e+01 1.289256e+01 8.528926e+00 8.925620e+00 1.130579e+01
 1.090909e+01 1.051240e+01 1.051240e+01 1.011570e+01 9.322314e+00
 9.719008e+00 1.170248e+01 1.209917e+01 1.249587e+01 1.289256e+01
 1.328926e+01 1.328926e+01 8.528926e+00 8.132232e+00 8.132232e+00
 8.925620e+00 1.161759e+01 1.170248e+01 1.115032e+01 1.090909e+01
 1.090909e+01 1.051240e+01 1.011570e+01 9.719008e+00 9.322314e+00
 1.209917e+01 1.249587e+01 1.289256e+01 1.328926e+01 1.368595e+01
 1.368595e+01 8.528926e+00 8.132232e+00 7.610000e+00 7.735538e+00
 8.925620e+00 1.209917e+01 1.146500e+01 1.150608e+01 1.115032e+01
 1.094757e+01 1.112819e+01 1.090909e+01 1.100280e+01 1.051240e+01
 1.011570e+01 9.322314e+00 9.719008e+00 9.520661e+00 1.249587e+01
 1.289256e+01 1.328926e+01 1.368595e+01 1.408265e+01 1.408265e+01
 8.528926e+00 8.132232e+00 7.735538e+00 8.925620e+00 9.123967e+00
 1.209917e+01 1.249587e+01 1.146500e+01 1.146500e+01 1.146500e+01
 1.170248e+01 1.133746e+01 1.090909e+01 1.146500e+01 1.146500e+01
 1.051240e+01 1.011570e+01 9.917356e+00 9.322314e+00 9.520661e+00
 9.719008e+00 1.289256e+01 1.328926e+01 1.368595e+01 1.408265e+01
 1.447934e+01 1.447934e+01 8.528926e+00 8.132232e+00 7.735538e+00
 8.925620e+00 9.123967e+00 1.170248e+01 1.209917e+01 1.249587e+01
 1.289256e+01 1.146500e+01 1.090909e+01 1.146500e+01 1.170248e+01
 1.146500e+01 1.051240e+01 1.031405e+01 9.917356e+00 1.011570e+01
 9.520661e+00 9.322314e+00 9.719008e+00 1.328926e+01 1.368595e+01
 1.408265e+01 1.447934e+01 1.487603e+01 1.487603e+01 8.528926e+00
 8.925620e+00 8.727273e+00 8.132232e+00 7.735538e+00 9.123967e+00
 1.209917e+01 1.249587e+01 1.289256e+01 1.328926e+01 1.090909e+01
 1.090909e+01 1.071074e+01 1.146500e+01 1.170248e+01 1.031405e+01
 1.051240e+01 9.917356e+00 1.011570e+01 9.322314e+00 9.520661e+00
 9.719008e+00 1.368595e+01 1.408265e+01 1.447934e+01 1.487603e+01
 1.527273e+01 1.527273e+01 8.132232e+00 8.528926e+00 8.727273e+00
 8.925620e+00 7.735538e+00 9.123967e+00 1.209917e+01 1.249587e+01
 1.289256e+01 1.328926e+01 1.368595e+01 1.071074e+01 1.090909e+01
 1.146500e+01 1.143272e+01 1.135311e+01 1.138539e+01 1.112725e+01
 1.158374e+01 1.170248e+01 1.031405e+01 1.051240e+01 9.917356e+00
 1.011570e+01 9.520661e+00 9.322314e+00 9.719008e+00 1.408265e+01
 1.447934e+01 1.487603e+01 1.527273e+01 1.566942e+01 1.566942e+01
 8.528926e+00 8.132232e+00 7.735538e+00 8.727273e+00 8.925620e+00
 9.123967e+00 1.209917e+01 1.249587e+01 1.289256e+01 1.328926e+01
 1.368595e+01 1.408265e+01 1.071074e+01 1.090909e+01 1.110744e+01
 1.135311e+01 1.146500e+01 1.146500e+01 1.146500e+01 1.157384e+01
 1.151419e+01 1.170248e+01 1.031405e+01 1.051240e+01 9.917356e+00
 1.011570e+01 9.322314e+00 9.520661e+00 9.719008e+00 1.447934e+01
 1.487603e+01 1.527273e+01 1.566942e+01 1.606612e+01 1.606612e+01
 9.520661e+00 9.322314e+00 9.719008e+00 8.528926e+00 8.132232e+00
 8.528926e+00 7.735538e+00 8.727273e+00 8.925620e+00 9.123967e+00
 1.249587e+01 1.201428e+01 1.178737e+01 1.289256e+01 1.328926e+01
 1.368595e+01 1.408265e+01 1.447934e+01 1.071074e+01 1.090909e+01
 1.110744e+01 1.135311e+01 1.146500e+01 1.170248e+01 1.170248e+01
 1.178737e+01 1.031405e+01 1.051240e+01 9.917356e+00 1.011570e+01
 1.487603e+01 1.527273e+01 1.566942e+01 1.606612e+01 1.646281e+01
 1.646281e+01 1.178737e+01 1.201428e+01 9.123967e+00 8.925620e+00
 9.917356e+00 1.011570e+01 9.520661e+00 9.520661e+00 9.322314e+00
 9.322314e+00 9.719008e+00 9.719008e+00 8.528926e+00 8.132232e+00
 8.528926e+00 7.735538e+00 8.727273e+00 1.209917e+01 1.249587e+01
 1.289256e+01 1.328926e+01 1.368595e+01 1.408265e+01 1.447934e+01
 1.487603e+01 1.071074e+01 1.090909e+01 1.110744e+01 1.134541e+01
 1.146500e+01 1.170248e+01 1.031405e+01 1.051240e+01 1.527273e+01
 1.566942e+01 1.606612e+01 1.646281e+01 1.680658e+01 1.680658e+01
 1.209917e+01 1.170248e+01 9.123967e+00 9.123967e+00 8.925620e+00
 8.925620e+00 1.031405e+01 1.051240e+01 9.917356e+00 9.917356e+00
 1.011570e+01 1.011570e+01 9.520661e+00 9.520661e+00 9.322314e+00
 9.322314e+00 9.719008e+00 9.719008e+00 8.528926e+00 8.132232e+00
 8.528926e+00 7.735538e+00 8.727273e+00 8.727273e+00 1.249587e+01
 1.289256e+01 1.328926e+01 1.368595e+01 1.408265e+01 1.447934e+01
 1.487603e+01 1.527273e+01 1.071074e+01 1.090909e+01 1.110744e+01
 1.133986e+01 1.146500e+01 1.566942e+01 1.606612e+01 1.646281e+01
 1.680658e+01 1.170248e+01 1.209917e+01 1.170248e+01 9.322314e+00
 8.925620e+00 8.925620e+00 9.322314e+00 8.925620e+00 9.322314e+00
 9.123967e+00 8.925620e+00 9.123967e+00 1.071074e+01 1.090909e+01
 1.031405e+01 1.031405e+01 1.051240e+01 1.051240e+01 9.917356e+00
 9.917356e+00 1.011570e+01 1.011570e+01 9.719008e+00 9.719008e+00
 9.520661e+00 9.520661e+00 9.719008e+00 8.528926e+00 8.132232e+00
 8.727273e+00 8.727273e+00 1.249587e+01 1.289256e+01 1.328926e+01
 1.368595e+01 1.408265e+01 1.447934e+01 1.487603e+01 1.527273e+01
 1.566942e+01 1.110744e+01 1.133986e+01 1.146500e+01 1.146500e+01
 1.606612e+01 1.646281e+01 1.680658e+01 1.170248e+01 1.209917e+01
 1.170248e+01 1.146500e+01 8.528926e+00 1.133986e+01 1.110744e+01
 1.071074e+01 1.071074e+01 1.090909e+01 1.090909e+01 1.031405e+01
 1.031405e+01 1.051240e+01 1.051240e+01 1.011570e+01 1.011570e+01
 9.917356e+00 9.917356e+00 1.011570e+01 8.132232e+00 1.249587e+01
 1.289256e+01 1.328926e+01 1.368595e+01 1.408265e+01 1.447934e+01
 1.487603e+01 1.527273e+01 1.566942e+01 1.606612e+01 1.146500e+01
 1.646281e+01 1.680658e+01 1.170248e+01 1.209917e+01 1.170248e+01
 1.146500e+01 1.146500e+01 1.090909e+01 1.071074e+01 1.090909e+01
 1.051240e+01 1.051240e+01 1.051240e+01 1.011570e+01 1.133986e+01
 1.110744e+01 1.146500e+01 1.133986e+01 1.110744e+01 1.071074e+01
 1.071074e+01 1.090909e+01 1.090909e+01 1.031405e+01 1.031405e+01
 1.051240e+01 1.249587e+01 1.289256e+01 1.328926e+01 1.368595e+01
 1.408265e+01 1.447934e+01 1.487603e+01 1.527273e+01 1.566942e+01
 1.606612e+01 1.646281e+01 1.170248e+01 1.209917e+01 1.170248e+01
 1.146500e+01 1.146500e+01 1.146500e+01 1.146500e+01 1.090909e+01
 1.071074e+01 1.082420e+01 1.079563e+01 1.082420e+01 1.079563e+01
 1.146500e+01 1.133986e+01 1.110744e+01 1.146500e+01 1.133986e+01
 1.112447e+01 1.146500e+01 1.141946e+01 1.090909e+01 1.090909e+01
 1.138539e+01 1.249587e+01 1.289256e+01 1.328926e+01 1.368595e+01
 1.408265e+01 1.447934e+01 1.487603e+01 1.527273e+01 1.566942e+01
 1.606612e+01 1.646281e+01 1.146500e+01 1.146500e+01 1.178737e+01
 1.201428e+01 1.178737e+01 1.178737e+01 1.201428e+01 1.146500e+01
 1.158374e+01 1.170248e+01 1.146500e+01 1.170248e+01 1.146500e+01
 1.051240e+01 1.090909e+01 1.146500e+01 1.146500e+01 1.146500e+01
 1.146500e+01 1.146500e+01 1.157522e+01 1.209917e+01 1.249587e+01
 1.289256e+01 1.328926e+01 1.368595e+01 1.408265e+01 1.447934e+01
 1.487603e+01 1.527273e+01 1.566942e+01 1.606612e+01 1.646281e+01
 1.680658e+01 1.170248e+01 1.146500e+01 1.150730e+01 1.170248e+01
 1.209917e+01 1.146500e+01 1.170248e+01 1.146500e+01 1.146500e+01
 1.051240e+01 1.090909e+01 1.249587e+01 1.289256e+01 1.328926e+01
 1.368595e+01 1.408265e+01 1.447934e+01 1.487603e+01 1.527273e+01
 1.566942e+01 1.606612e+01 1.646281e+01 1.680658e+01 1.209917e+01
 1.146500e+01 1.170248e+01 1.146500e+01 1.249587e+01 1.289256e+01
 1.328926e+01 1.368595e+01 1.408265e+01 1.447934e+01 1.487603e+01
 1.527273e+01 1.566942e+01 1.606612e+01 1.646281e+01 1.680658e+01
 1.209917e+01 1.146500e+01 1.170248e+01 1.249587e+01 1.289256e+01
 1.328926e+01 1.368595e+01 1.408265e+01 1.447934e+01 1.487603e+01
 1.527273e+01 1.566942e+01 1.606612e+01 1.646281e+01 1.680658e+01
 1.209917e+01 1.146500e+01 1.170248e+01 1.249587e+01 1.289256e+01
 1.328926e+01 1.368595e+01 1.408265e+01 1.447934e+01 1.487603e+01
 1.527273e+01 1.566942e+01 1.606612e+01 1.646281e+01 1.209917e+01
 1.289256e+01 1.328926e+01 1.368595e+01 1.408265e+01 1.447934e+01
 1.487603e+01 1.527273e+01 1.566942e+01 1.606612e+01 1.646281e+01
 1.368595e+01 1.408265e+01 1.447934e+01 1.487603e+01 1.527273e+01
 1.566942e+01 1.606612e+01 1.646281e+01 1.680658e+01 1.447934e+01
 1.487603e+01 1.527273e+01 1.566942e+01 1.606612e+01 1.646281e+01
 1.680658e+01 1.487603e+01 1.527273e+01 1.566942e+01 1.606612e+01
 1.646281e+01 1.680658e+01 1.527273e+01 1.566942e+01 1.606612e+01
 1.646281e+01 1.680658e+01 1.566942e+01 1.606612e+01 1.646281e+01
 1.680658e+01 1.606612e+01 1.646281e+01 -1.680658e+01 -1.680658e+01
 -1.725620e+01 -1.725620e+01 -1.680658e+01 -1.725620e+01 -1.765289e+01
 -1.765289e+01 -1.765289e+01 -1.680658e+01 -1.725620e+01 -1.804959e+01
 -1.804959e+01 -1.765289e+01 -1.804959e+01 -1.680658e+01 -1.725620e+01
 -1.844628e+01 -1.844628e+01 -1.804959e+01 -1.765289e+01 -1.844628e+01
 -1.725620e+01 -1.680658e+01 -1.680658e+01 -1.725620e+01 -1.884298e+01
 -1.884298e+01 -1.844628e+01 -1.804959e+01 -1.765289e+01 -1.765289e+01
 -1.884298e+01 -1.680658e+01 -1.725620e+01 -1.923967e+01 -1.923967e+01
 -1.884298e+01 -1.844628e+01 -1.804959e+01 -1.804959e+01 -1.765289e+01
 -1.923967e+01 -1.680658e+01 -1.725620e+01 -1.963636e+01 -1.963636e+01
 -1.923967e+01 -1.884298e+01 -1.844628e+01 -1.844628e+01 -1.804959e+01
 -1.765289e+01 -1.963636e+01 -1.680658e+01 -1.725620e+01 -2.003306e+01
 -2.003306e+01 -1.963636e+01 -1.923967e+01 -1.884298e+01 -1.884298e+01
 -1.844628e+01 -1.804959e+01 -1.765289e+01 -2.003306e+01 -1.725620e+01
 -1.680658e+01 -1.680658e+01 -1.725620e+01 -2.042975e+01 -2.042975e+01
 -2.003306e+01 -1.963636e+01 -1.923967e+01 -1.923967e+01 -1.884298e+01
 -1.844628e+01 -1.804959e+01 -1.765289e+01 -1.765289e+01 -2.042975e+01
 -1.680658e+01 -1.725620e+01 -2.090158e+01 -2.090158e+01 -2.042975e+01
 -2.003306e+01 -1.963636e+01 -1.963636e+01 -1.923967e+01 -1.884298e+01
 -1.844628e+01 -1.804959e+01 -1.804959e+01 -1.765289e+01 -2.090158e+01
 -2.090158e+01 -1.680658e+01 -1.725620e+01 -2.138424e+01 -2.090158e+01
 -2.090158e+01 -2.132571e+01 -2.042975e+01 -2.090158e+01 -2.003306e+01
 -2.003306e+01 -1.963636e+01 -1.923967e+01 -1.884298e+01 -1.844628e+01
 -1.844628e+01 -1.804959e+01 -1.765289e+01 -2.126022e+01 -2.139703e+01
 -2.090158e+01 -2.090158e+01 -1.680658e+01 -1.725620e+01 -2.042975e+01
 -2.042975e+01 -2.090158e+01 -2.122314e+01 -2.090158e+01 -2.122314e+01
 -2.003306e+01 -1.963636e+01 -1.923967e+01 -1.884298e+01 -1.884298e+01
 -1.844628e+01 -1.804959e+01 -1.765289e+01 -2.144330e+01 -1.680658e+01
 -1.725620e+01 -2.042975e+01 -2.090158e+01 -2.090158e+01 -2.090158e+01
 -2.122314e+01 -2.150231e+01 -2.145596e+01 -2.003306e+01 -1.963636e+01
 -1.923967e+01 -1.923967e+01 -1.884298e+01 -1.844628e+01 -1.804959e+01
 -1.765289e+01 -1.680658e+01 -1.725620e+01 -2.042975e+01 -2.090158e+01
 -2.090158e+01 -2.122314e+01 -2.156061e+01 -2.003306e+01 -1.963636e+01
 -1.963636e+01 -1.923967e+01 -1.884298e+01 -1.844628e+01 -1.804959e+01
 -1.765289e+01 -1.680658e+01 -1.725620e+01 -2.042975e+01 -2.090158e+01
 -2.090158e+01 -2.122314e+01 -2.161883e+01 -2.003306e+01 -2.003306e+01
 -1.963636e+01 -1.923967e+01 -1.884298e+01 -1.844628e+01 -1.804959e+01
 -1.765289e+01 -1.680658e+01 -1.725620e+01 -2.042975e+01 -2.042975e+01
 -2.090158e+01 -2.090158e+01 -2.122314e+01 -2.167628e+01 -2.003306e+01
 -1.963636e+01 -1.923967e+01 -1.884298e+01 -1.844628e+01 -1.804959e+01
 -1.765289e+01 -1.725620e+01 -1.680658e+01 -1.680658e+01 -1.725620e+01
 -2.042975e+01 -2.090158e+01 -2.090158e+01 -2.090158e+01 -2.122314e+01
 -2.173351e+01 -2.003306e+01 -1.963636e+01 -1.923967e+01 -1.884298e+01
 -1.844628e+01 -1.804959e+01 -1.765289e+01 -1.765289e+01 -1.680658e+01
 -1.725620e+01 -2.042975e+01 -2.090158e+01 -2.122314e+01 -2.090158e+01
 -2.122314e+01 -2.178991e+01 -2.003306e+01 -1.963636e+01 -1.923967e+01
 -1.884298e+01 -1.844628e+01 -1.804959e+01 -1.804959e+01 -1.765289e+01
 -1.680658e+01 -1.725620e+01 -2.042975e+01 -2.090158e+01 -2.090158e+01
 -2.122314e+01 -2.165882e+01 -2.180188e+01 -2.003306e+01 -1.963636e+01
 -1.923967e+01 -1.884298e+01 -1.844628e+01 -1.844628e+01 -1.804959e+01
 -1.765289e+01 -1.680658e+01 -1.725620e+01 -2.042975e+01 -2.090158e+01
 -2.090158e+01 -2.122314e+01 -2.161983e+01 -2.161984e+01 -2.184574e+01
 -2.003306e+01 -1.963636e+01 -1.923967e+01 -1.884298e+01 -1.884298e+01
 -1.844628e+01 -1.804959e+01 -1.765289e+01 -1.680658e+01 -1.725620e+01
 -2.042975e+01 -2.090158e+01 -2.090158e+01 -2.122314e+01 -2.161984e+01
 -2.190069e+01 -2.185771e+01 -2.003306e+01 -1.963636e+01 -1.923967e+01
 -1.923967e+01 -1.884298e+01 -1.844628e+01 -1.804959e+01 -1.765289e+01
 -1.680658e+01 -1.725620e+01 -2.042975e+01 -2.090158e+01 -2.090158e+01
 -2.122314e+01 -2.161984e+01 -2.195518e+01 -2.003306e+01 -1.963636e+01
 -1.963636e+01 -1.923967e+01 -1.884298e+01 -1.844628e+01 -1.804959e+01
 -1.765289e+01 -1.680658e+01 -1.725620e+01 -2.042975e+01 -2.090158e+01
 -2.090158e+01 -2.122314e+01 -2.161984e+01 -2.200836e+01 -2.003306e+01
 -2.003306e+01 -1.963636e+01 -1.923967e+01 -1.884298e+01 -1.844628e+01
 -1.804959e+01 -1.765289e+01 -1.680658e+01 -1.725620e+01 -2.042975e+01
 -2.042975e+01 -2.090158e+01 -2.090158e+01 -2.122314e+01 -2.161984e+01
 -2.206097e+01 -2.003306e+01 -1.963636e+01 -1.923967e+01 -1.884298e+01
 -1.844628e+01 -1.804959e+01 -1.765289e+01 -1.725620e+01 -1.680658e+01
 -1.680658e+01 -1.725620e+01 -2.042975e+01 -2.090158e+01 -2.090158e+01
 -2.090158e+01 -2.122314e+01 -2.161984e+01 -2.211214e+01 -2.003306e+01
 -1.963636e+01 -1.923967e+01 -1.884298e+01 -1.844628e+01 -1.804959e+01
 -1.765289e+01 -1.765289e+01 -1.680658e+01 -1.725620e+01 -2.042975e+01
 -2.090158e+01 -2.090158e+01 -2.122314e+01 -2.161983e+01 -2.161983e+01
 -2.216274e+01 -2.003306e+01 -1.963636e+01 -1.923967e+01 -1.884298e+01
 -1.844628e+01 -1.804959e+01 -1.804959e+01 -1.765289e+01 -1.680658e+01
 -1.725620e+01 -2.042975e+01 -2.090158e+01 -2.090158e+01 -2.122314e+01
 -2.161984e+01 -2.205014e+01 -2.217352e+01 -2.003306e+01 -1.963636e+01
 -1.923967e+01 -1.884298e+01 -1.844628e+01 -1.844628e+01 -1.804959e+01
 -1.765289e+01 -1.680658e+01 -1.725620e+01 -2.042975e+01 -2.090158e+01
 -2.090158e+01 -2.122314e+01 -2.161984e+01 -2.201653e+01 -2.201653e+01
 -2.221184e+01 -2.003306e+01 -1.963636e+01 -1.923967e+01 -1.884298e+01
 -1.884298e+01 -1.844628e+01 -1.804959e+01 -1.765289e+01 -1.680658e+01
 -1.725620e+01 -2.042975e+01 -2.090158e+01 -2.090158e+01 -2.122314e+01
 -2.161984e+01 -2.201653e+01 -2.226035e+01 -2.222237e+01 -2.003306e+01
 -1.963636e+01 -1.923967e+01 -1.923967e+01 -1.884298e+01 -1.844628e+01
 -1.804959e+01 -1.765289e+01 -1.680658e+01 -1.725620e+01 -2.042975e+01
 -2.090158e+01 -2.090158e+01 -2.122314e+01 -2.161984e+01 -2.201653e+01
 -2.230781e+01 -2.003306e+01 -1.963636e+01 -1.963636e+01 -1.923967e+01
 -1.884298e+01 -1.844628e+01 -1.804959e+01 -1.765289e+01 -1.680658e+01
 -1.725620e+01 -2.042975e+01 -2.090158e+01 -2.090158e+01 -2.122314e+01
 -2.161984e+01 -2.201653e+01 -2.235409e+01 -2.003306e+01 -2.003306e+01
 -1.963636e+01 -1.923967e+01 -1.884298e+01 -1.844628e+01 -1.804959e+01
 -1.765289e+01 -1.680658e+01 -1.725620e+01 -2.042975e+01 -2.042975e+01
 -2.090158e+01 -2.090158e+01 -2.122314e+01 -2.161984e+01 -2.201653e+01
 -2.239908e+01 -2.003306e+01 -1.963636e+01 -1.923967e+01 -1.884298e+01
 -1.844628e+01 -1.804959e+01 -1.765289e+01 -1.725620e+01 -1.680658e+01
 -1.680658e+01 -1.725620e+01 -2.042975e+01 -2.090158e+01 -2.090158e+01
 -2.090158e+01 -2.122314e+01 -2.161984e+01 -2.201653e+01 -2.244270e+01
 -2.003306e+01 -1.963636e+01 -1.923967e+01 -1.884298e+01 -1.844628e+01
 -1.804959e+01 -1.765289e+01 -1.765289e+01 -1.680658e+01 -1.725620e+01
 -2.042975e+01 -2.090158e+01 -2.090158e+01 -2.122314e+01 -2.161984e+01
 -2.201653e+01 -2.248489e+01 -2.003306e+01 -1.963636e+01 -1.923967e+01
 -1.884298e+01 -1.844628e+01 -1.804959e+01 -1.804959e+01 -1.765289e+01
 -1.680658e+01 -1.725620e+01 -2.042975e+01 -2.090158e+01 -2.090158e+01
 -2.122314e+01 -2.161984e+01 -2.201653e+01 -2.252564e+01 -2.003306e+01
 -1.963636e+01 -1.923967e+01 -1.884298e+01 -1.844628e+01 -1.844628e+01
 -1.804959e+01 -1.765289e+01 -1.680658e+01 -1.725620e+01 -2.042975e+01
 -2.090158e+01 -2.090158e+01 -2.122314e+01 -2.161984e+01 -2.201653e+01
 -2.201653e+01 -2.256498e+01 -2.003306e+01 -1.963636e+01 -1.923967e+01
 -1.884298e+01 -1.884298e+01 -1.844628e+01 -1.804959e+01 -1.765289e+01
 -1.680658e+01 -1.725620e+01 -2.042975e+01 -2.090158e+01 -2.090158e+01
 -2.122314e+01 -2.161984e+01 -2.201653e+01 -2.244757e+01 -2.257346e+01
 -2.003306e+01 -1.963636e+01 -1.923967e+01 -1.923967e+01 -1.884298e+01
 -1.844628e+01 -1.804959e+01 -1.765289e+01 -1.680658e+01 -1.725620e+01
 -2.042975e+01 -2.090158e+01 -2.090158e+01 -2.122314e+01 -2.161984e+01
 -2.201653e+01 -2.241322e+01 -2.241323e+01 -2.260364e+01 -2.003306e+01
 -1.963636e+01 -1.963636e+01 -1.923967e+01 -1.884298e+01 -1.844628e+01
 -1.804959e+01 -1.765289e+01 -1.680658e+01 -1.725620e+01 -2.042975e+01
 -2.090158e+01 -2.090158e+01 -2.122314e+01 -2.161984e+01 -2.201653e+01
 -2.241323e+01 -2.264125e+01 -2.261189e+01 -2.003306e+01 -2.003306e+01
 -1.963636e+01 -1.923967e+01 -1.884298e+01 -1.844628e+01 -1.804959e+01
 -1.765289e+01 -1.680658e+01 -1.725620e+01 -2.042975e+01 -2.042975e+01
 -2.090158e+01 -2.090158e+01 -2.122314e+01 -2.161984e+01 -2.201653e+01
 -2.241323e+01 -2.267755e+01 -2.003306e+01 -1.963636e+01 -1.923967e+01
 -1.884298e+01 -1.844628e+01 -1.804959e+01 -1.765289e+01 -2.042975e+01
 -2.090158e+01 -2.090158e+01 -2.090158e+01 -2.122314e+01 -2.161984e+01
 -2.201653e+01 -2.241323e+01 -2.271247e+01 -2.003306e+01 -1.963636e+01
 -1.923967e+01 -1.884298e+01 -1.844628e+01 -1.804959e+01 -2.042975e+01
 -2.090158e+01 -2.090158e+01 -2.122314e+01 -2.161984e+01 -2.201653e+01
 -2.241323e+01 -2.274597e+01 -2.003306e+01 -1.963636e+01 -1.923967e+01
 -1.884298e+01 -1.844628e+01 -2.042975e+01 -2.090158e+01 -2.090158e+01
 -2.122314e+01 -2.161984e+01 -2.201653e+01 -2.241323e+01 -2.277803e+01
 -2.003306e+01 -1.963636e+01 -1.923967e+01 -1.884298e+01 -2.042975e+01
 -2.090158e+01 -2.090158e+01 -2.122314e+01 -2.161984e+01 -2.201653e+01
 -2.241323e+01 -2.280863e+01 -2.003306e+01 -1.963636e+01 -1.923967e+01
 -2.042975e+01 -2.090158e+01 -2.090158e+01 -2.122314e+01 -2.161984e+01
 -2.201653e+01 -2.241323e+01 -2.283777e+01 -2.003306e+01 -1.963636e+01
 -2.042975e+01 -2.090158e+01 -2.090158e+01 -2.122314e+01 -2.161984e+01
 -2.201653e+01 -2.241323e+01 -2.286664e+01 -2.003306e+01 -2.042975e+01
 -2.090158e+01 -2.090158e+01 -2.122314e+01 -2.161984e+01 -2.201653e+01
 -2.241323e+01 -2.289481e+01 -2.090158e+01 -2.090158e+01 -2.122314e+01
 -2.161984e+01 -2.201653e+01 -2.241323e+01 -2.292173e+01 -2.090158e+01
 -2.120157e+01 -2.161984e+01 -2.201653e+01 -2.241323e+01 -2.294738e+01
 -2.180157e+01 -2.201653e+01 -2.241323e+01 -2.297173e+01 -2.201653e+01
 -2.241323e+01 -2.241322e+01 -2.299474e+01 -2.241323e+01 -2.285266e+01
 -2.299982e+01 -2.280990e+01 -2.302067e+01 -2.298912e+01 -2.299688e+01
 -1.646281e+01 -1.646281e+01 -1.680658e+01 -1.646281e+01 -1.606612e+01
 -1.606612e+01 -1.680658e+01 -1.646281e+01 -1.566942e+01 -1.566942e+01
 -1.606612e+01 -1.680658e+01 -1.646281e+01 -1.527273e+01 -1.527273e+01
 -1.566942e+01 -1.606612e+01 -1.680658e+01 -1.646281e+01 -1.487603e+01
 -1.487603e+01 -1.527273e+01 -1.566942e+01 -1.606612e+01 -1.680658e+01
 -1.646281e+01 -1.447934e+01 -1.447934e+01 -1.487603e+01 -1.527273e+01
 -1.566942e+01 -1.606612e+01 -1.680658e+01 -1.646281e+01 -1.408265e+01
 -1.408265e+01 -1.447934e+01 -1.487603e+01 -1.527273e+01 -1.566942e+01
 -1.606612e+01 -1.646281e+01 -1.368595e+01 -1.368595e+01 -1.408265e+01
 -1.447934e+01 -1.487603e+01 -1.527273e+01 -1.566942e+01 -1.606612e+01
 -1.646281e+01 -1.368595e+01 -1.408265e+01 -1.447934e+01 -1.487603e+01
 -1.527273e+01 -1.566942e+01 -1.606612e+01 -1.680658e+01 -1.646281e+01
 -1.328926e+01 -1.328926e+01 -1.368595e+01 -1.408265e+01 -1.447934e+01
 -1.487603e+01 -1.527273e+01 -1.566942e+01 -1.606612e+01 -1.680658e+01
 -1.646281e+01 -1.328926e+01 -1.368595e+01 -1.408265e+01 -1.447934e+01
 -1.487603e+01 -1.527273e+01 -1.566942e+01 -1.606612e+01 -1.680658e+01
 -1.646281e+01 -1.328926e+01 -1.368595e+01 -1.408265e+01 -1.447934e+01
 -1.487603e+01 -1.527273e+01 -1.566942e+01 -1.606612e+01 -1.680658e+01
 -1.646281e+01 -1.289256e+01 -1.289256e+01 -1.328926e+01 -1.368595e+01
 -1.408265e+01 -1.447934e+01 -1.487603e+01 -1.527273e+01 -1.566942e+01
 -1.606612e+01 -1.646281e+01 -1.289256e+01 -1.328926e+01 -1.368595e+01
 -1.408265e+01 -1.447934e+01 -1.487603e+01 -1.527273e+01 -1.566942e+01
 -1.606612e+01 -1.646281e+01 -1.289256e+01 -1.328926e+01 -1.368595e+01
 -1.408265e+01 -1.447934e+01 -1.487603e+01 -1.527273e+01 -1.566942e+01
 -1.606612e+01 -1.680658e+01 -1.646281e+01 -1.249587e+01 -1.249587e+01
 -1.289256e+01 -1.328926e+01 -1.368595e+01 -1.408265e+01 -1.447934e+01
 -1.487603e+01 -1.527273e+01 -1.566942e+01 -1.606612e+01 -1.646281e+01
 -1.209917e+01 -1.209917e+01 -1.249587e+01 -1.289256e+01 -1.328926e+01
 -1.368595e+01 -1.408265e+01 -1.447934e+01 -1.487603e+01 -1.527273e+01
 -1.566942e+01 -1.606612e+01 -1.646281e+01 -1.209917e+01 -1.249587e+01
 -1.289256e+01 -1.328926e+01 -1.368595e+01 -1.408265e+01 -1.447934e+01
 -1.487603e+01 -1.527273e+01 -1.566942e+01 -1.606612e+01 -1.680658e+01
 -1.646281e+01 -1.209917e+01 -1.249587e+01 -1.289256e+01 -1.328926e+01
 -1.368595e+01 -1.408265e+01 -1.447934e+01 -1.487603e+01 -1.527273e+01
 -1.566942e+01 -1.606612e+01 -1.680658e+01 -1.646281e+01 -1.249587e+01
 -1.289256e+01 -1.328926e+01 -1.368595e+01 -1.408265e+01 -1.447934e+01
 -1.487603e+01 -1.527273e+01 -1.566942e+01 -1.606612e+01 -1.249587e+01
 -1.289256e+01 -1.328926e+01 -1.368595e+01 -1.408265e+01 -1.447934e+01
 -1.487603e+01 -1.527273e+01 -1.566942e+01 -1.249587e+01 -1.289256e+01
 -1.328926e+01 -1.368595e+01 -1.408265e+01 -1.447934e+01 -1.487603e+01
 -1.527273e+01 -1.289256e+01 -1.328926e+01 -1.368595e+01 -1.408265e+01
 -1.447934e+01 -1.487603e+01 -1.289256e+01 -1.328926e+01 -1.368595e+01
 -1.408265e+01 -1.447934e+01 -1.289256e+01 -1.328926e+01 -1.368595e+01
 -1.408265e+01 -1.289256e+01 -1.328926e+01 -1.368595e+01 -1.289256e+01
 -1.328926e+01 -1.289256e+01 1.680658e+01 1.725620e+01 1.725620e+01
 1.680658e+01 1.765289e+01 1.765289e+01 1.725620e+01 1.680658e+01