TITLE     = "Tecplot Export"
VARIABLES ="var-0"
"var-1"
"var-2"
"var-3"
ZONE T="age of air"
N=15183, E=28533 ,F=FEPoint ,ET=LINESEG
 -4.56198 8.31858 19.128 4597.92
 -4.95868 8.31858 19.128 4606.68
 -4.95868 8.71504 19.128 4604.84
 -4.56198 8.71504 19.128 4596.74
 -5.35537 8.71504 19.128 4617.01
 -5.35537 9.1115 19.128 4614.96
 -4.95868 9.1115 19.128 4602.88
 -4.95868 7.92212 19.128 4608.45
 -4.56198 7.92212 19.128 4599.2
 -5.35537 8.31858 19.128 4618.64
 -4.085 8.71504 19.128 4594.69
 -4.085 8.31858 19.128 4595.08
 -5.75207 9.1115 19.128 4624.26
 -5.75207 8.71504 19.128 4626.2
 -4.085 7.92212 19.128 4595.56
 -4.085 7.52566 19.128 4596.12
 -4.56198 7.52566 19.128 4600.51
 -4.95868 7.52566 19.128 4610.14
 -5.35537 7.92212 19.128 4619.99
 -5.75207 8.31858 19.128 4627.58
 -6.14876 9.1115 19.128 4626.24
 -6.14876 8.71504 19.128 4628.64
 -4.085 7.1292 19.128 4596.76
 -4.56198 7.1292 19.128 4601.79
 -4.95868 7.1292 19.128 4611.7
 -5.35537 7.52566 19.128 4621.13
 -5.75207 7.92212 19.128 4628.56
 -6.14876 8.31858 19.128 4630.34
 -6.54545 9.1115 19.128 4619.73
 -6.54545 8.71504 19.128 4622.84
 -4.085 6.73274 19.128 4597.46
 -4.56198 6.73274 19.128 4603.03
 -4.95868 6.73274 19.128 4613.13
 -5.35537 7.1292 19.128 4622.13
 -5.75207 7.52566 19.128 4629.29
 -6.14876 7.92212 19.128 4631.58
 -6.54545 8.31858 19.128 4625.28
 -6.94215 9.1115 19.128 4607.21
 -6.94215 8.71504 19.128 4610.2
 -4.085 6.33628 19.128 4598.2
 -4.56198 6.33628 19.128 4604.21
 -4.95868 6.33628 19.128 4614.44
 -5.35537 6.73274 19.128 4623.01
 -5.75207 7.1292 19.128 4629.88
 -6.14876 7.52566 19.128 4632.53
 -6.54545 7.92212 19.128 4627.36
 -6.94215 8.31858 19.128 4612.43
 -7.33884 9.1115 19.128 4592.05
 -7.33884 8.71504 19.128 4592.53
 -4.085 5.93982 19.128 4598.97
 -4.56198 5.93982 19.128 4605.31
 -4.95868 5.93982 19.128 4615.62
 -5.35537 6.33628 19.128 4623.82
 -5.75207 6.73274 19.128 4630.38
 -6.14876 7.1292 19.128 4633.29
 -6.54545 7.52566 19.128 4629.18
 -6.94215 7.92212 19.128 4614.74
 -7.33884 8.31858 19.128 4591.06
 -7.73554 9.1115 19.128 4578.93
 -7.73554 8.71504 19.128 4574.75
 -4.085 5.54336 19.128 4599.76
 -4.56198 5.54336 19.128 4606.36
 -4.95868 5.54336 19.128 4616.72
 -5.35537 5.93982 19.128 4624.6
 -5.75207 6.33628 19.128 4630.87
 -6.14876 6.73274 19.128 4633.94
 -6.54545 7.1292 19.128 4630.49
 -6.94215 7.52566 19.128 4616.94
 -7.33884 7.92212 19.128 4589.21
 -7.73554 8.31858 19.128 4563.95
 -8.13223 9.1115 19.128 4571.15
 -8.13223 8.71504 19.128 4564.19
 -4.085 5.1469 19.128 4600.58
 -4.56198 5.1469 19.128 4607.36
 -4.95868 5.1469 19.128 4617.75
 -5.35537 5.54336 19.128 4625.37
 -5.75207 5.93982 19.128 4631.4
 -6.14876 6.33628 19.128 4634.68
 -6.54545 6.73274 19.128 4631.44
 -6.94215 7.1292 19.128 4617.25
 -7.33884 7.52566 19.128 4585.55
 -7.73554 7.92212 19.128 4547.96
 -8.13223 8.31858 19.128 4543.5
 -8.52893 9.1115 19.128 4568.86
 -8.52893 8.71504 19.128 4563.56
 -8.13223 9.50797 19.128 4567.11
 -7.73554 9.50797 19.128 4574.74
 -4.085 4.75044 19.128 4601.42
 -4.56198 4.75044 19.128 4608.34
 -4.95868 4.75044 19.128 4618.74
 -5.35537 5.1469 19.128 4626.13
 -5.75207 5.54336 19.128 4631.97
 -6.14876 5.93982 19.128 4635.59
 -6.54545 6.33628 19.128 4633.08
 -6.94215 6.73274 19.128 4616.08
 -7.33884 7.1292 19.128 4572.88
 -7.73554 7.52566 19.128 4518.52
 -8.13223 7.92212 19.128 4508.43
 -8.52893 8.31858 19.128 4541.17
 -8.92562 9.1115 19.128 4571.63
 -8.92562 8.71504 19.128 4569.66
 -8.52893 9.50797 19.128 4565.59
 -4.085 4.35398 19.128 4602.28
 -4.56198 4.35398 19.128 4609.31
 -4.95868 4.35398 19.128 4619.71
 -5.35537 4.75044 19.128 4626.9
 -5.75207 5.1469 19.128 4632.55
 -6.14876 5.54336 19.128 4636.52
 -6.54545 5.93982 19.128 4635.68
 -6.94215 6.33628 19.128 4619.17
 -7.33884 6.73274 19.128 4558.11
 -7.73554 7.1292 19.128 4448.78
 -8.13223 7.52566 19.128 4445.9
 -8.52893 7.92212 19.128 4498
 -8.92562 8.31858 19.128 4554.2
 -9.32231 9.1115 19.128 4578.78
 -9.32231 8.71504 19.128 4578.82
 -8.92562 9.50797 19.128 4570.08
 -8.52893 9.90443 19.128 4561.75
 -8.13223 9.90443 19.128 4559.07
 -4.085 3.95752 19.128 4603.16
 -4.56198 3.95752 19.128 4610.28
 -4.95868 3.95752 19.128 4620.69
 -5.35537 4.35398 19.128 4627.69
 -5.75207 4.75044 19.128 4633.15
 -6.14876 5.1469 19.128 4637.32
 -6.54545 5.54336 19.128 4638.3
 -6.94215 5.93982 19.128 4627.35
 -7.33884 6.33628 19.128 4569.02
 -7.73554 6.73274 19.128 4391.49
 -8.13223 7.1292 19.128 4323.99
 -8.52893 7.52566 19.128 4427.32
 -8.92562 7.92212 19.128 4519.1
 -9.32231 8.31858 19.128 4572.24
 -9.71901 9.1115 19.128 4588.54
 -9.71901 8.71504 19.128 4588.95
 -9.32231 9.50797 19.128 4578.79
 -8.92562 9.90442 19.128 4569.94
 -4.085 3.56106 19.128 4604.05
 -4.56198 3.56106 19.128 4611.25
 -4.95868 3.56106 19.128 4621.67
 -5.35537 3.95752 19.128 4628.53
 -5.75207 4.35398 19.128 4633.78
 -6.14876 4.75044 19.128 4637.98
 -6.54545 5.1469 19.128 4640.27
 -6.94215 5.54336 19.128 4635.28
 -7.33884 5.93982 19.128 4599.69
 -7.73554 6.33628 19.128 4441
 -8.13223 6.73274 19.128 4238.97
 -8.52893 7.1292 19.128 4321.21
 -8.92562 7.52566 19.128 4465.31
 -9.32231 7.92212 19.128 4551.69
 -9.71901 8.31858 19.128 4588.23
 -10.1157 9.1115 19.128 4599.49
 -10.1157 8.71504 19.128 4598.63
 -9.71901 9.50797 19.128 4590.63
 -9.32231 9.90442 19.128 4581.32
 -4.085 3.1646 19.128 4604.96
 -4.56198 3.1646 19.128 4612.23
 -4.95868 3.1646 19.128 4622.68
 -5.35537 3.56106 19.128 4629.42
 -5.75207 3.95752 19.128 4634.47
 -6.14876 4.35398 19.128 4638.56
 -6.54545 4.75044 19.128 4641.57
 -6.94215 5.1469 19.128 4640.67
 -7.33884 5.54336 19.128 4623.69
 -7.73554 5.93982 19.128 4539.6
 -8.13223 6.33628 19.128 4327.35
 -8.52893 6.73274 19.128 4261.27
 -8.92562 7.1292 19.128 4402.31
 -9.32231 7.52566 19.128 4518.97
 -9.71901 7.92212 19.128 4579.17
 -10.1157 8.31858 19.128 4600.04
 -10.5124 9.1115 19.128 4610.49
 -10.5124 8.71504 19.128 4606.77
 -10.1157 9.50797 19.128 4603.29
 -9.71901 9.90442 19.128 4595.35
 -9.32231 10.3009 19.128 4585.06
 -8.92562 10.3009 19.128 4571.74
 -4.085 2.76814 19.128 4605.88
 -4.56198 2.76814 19.128 4613.22
 -4.95868 2.76814 19.128 4623.7
 -5.35537 3.1646 19.128 4630.37
 -5.75207 3.56106 19.128 4635.27
 -6.14876 3.95752 19.128 4639.13
 -6.54545 4.35398 19.128 4642.37
 -6.94215 4.75044 19.128 4643.78
 -7.33884 5.1469 19.128 4637.5
 -7.73554 5.54336 19.128 4601.51
 -8.13223 5.93982 19.128 4485.87
 -8.52893 6.33628 19.128 4345.52
 -8.92562 6.73274 19.128 4378.15
 -9.32231 7.1292 19.128 4487.09
 -9.71901 7.52566 19.128 4560.91
 -10.1157 7.92212 19.128 4596.77
 -10.5124 8.31858 19.128 4607.67
 -10.9091 9.1115 19.128 4619.35
 -10.9091 8.71504 19.128 4616.02
 -10.5124 9.50797 19.128 4609.81
 -10.1157 9.90442 19.128 4604.54
 -9.71901 10.3009 19.128 4598.86
 -4.085 2.37168 19.128 4606.71
 -4.56198 2.37168 19.128 4614.05
 -4.95868 2.37168 19.128 4624.57
 -5.35537 2.76814 19.128 4631.36
 -5.75207 3.1646 19.128 4636.17
 -6.14876 3.56106 19.128 4639.8
 -6.54545 3.95752 19.128 4642.93
 -6.94215 4.35398 19.128 4645.35
 -7.33884 4.75044 19.128 4644.45
 -7.73554 5.1469 19.128 4631.14
 -8.13223 5.54336 19.128 4582.59
 -8.52893 5.93982 19.128 4490.55
 -8.92562 6.33628 19.128 4438.33
 -9.32231 6.73274 19.128 4481.72
 -9.71901 7.1292 19.128 4544.54
 -10.1157 7.52566 19.128 4586.85
 -10.5124 7.92212 19.128 4605.99
 -10.9091 8.31858 19.128 4616.77
 -10.9091 9.50797 19.128 4605.85
 -11.465 8.71504 19.128 4623.98
 -11.465 9.1115 19.128 4624.33
 -10.5124 9.90442 19.128 4596.96
 -10.1157 10.3009 19.128 4601.91
 -4.085 1.97522 19.128 4610.45
 -4.56198 1.97522 19.128 4616.18
 -4.95868 1.97522 19.128 4625.22
 -5.35537 2.37168 19.128 4632.32
 -5.75207 2.76814 19.128 4637.18
 -6.14876 3.1646 19.128 4640.63
 -6.54545 3.56106 19.128 4643.45
 -6.94215 3.95752 19.128 4646.07
 -7.33884 4.35398 19.128 4647.53
 -7.73554 4.75044 19.128 4644.02
 -8.13223 5.1469 19.128 4626.32
 -8.52893 5.54336 19.128 4584.45
 -8.92562 5.93982 19.128 4534.93
 -9.32231 6.33628 19.128 4520.38
 -9.71901 6.73274 19.128 4545.19
 -10.1157 7.1292 19.128 4577.97
 -10.5124 7.52566 19.128 4600.58
 -10.9091 7.92212 19.128 4616.64
 -11.465 8.31858 19.128 4625.61
 -10.9091 9.90442 19.128 4580.91
 -11.465 9.50797 19.128 4599.54
 -10.5124 10.3009 19.128 4587.38
 -4.085 1.56 19.128 4268.4
 -4.56198 1.57876 19.128 4609.55
 -4.95868 1.57876 19.128 4626.14
 -5.35537 1.97522 19.128 4633.05
 -5.75207 2.37168 19.128 4638.23
 -6.14876 2.76814 19.128 4641.63
 -6.54545 3.1646 19.128 4644.11
 -6.94215 3.56106 19.128 4646.45
 -7.33884 3.95752 19.128 4648.63
 -7.73554 4.35398 19.128 4649.07
 -8.13223 4.75044 19.128 4643.93
 -8.52893 5.1469 19.128 4628.06
 -8.92562 5.54336 19.128 4601.91
 -9.32231 5.93982 19.128 4577.66
 -9.71901 6.33628 19.128 4570.15
 -10.1157 6.73274 19.128 4580.69
 -10.5124 7.1292 19.128 4596.51
 -10.9091 7.52566 19.128 4615.12
 -11.465 7.92212 19.128 4627.54
 -10.9091 10.3009 19.128 4572.79
 -11.465 9.90443 19.128 4571.36
 -4.085 1.1823 19.128 4180.9
 -4.56198 1.1823 19.128 4589.87
 -4.95868 1.1823 19.128 4628.39
 -5.35537 1.57876 19.128 4633.75
 -5.75207 1.97522 19.128 4639.17
 -6.14876 2.37168 19.128 4642.76
 -6.54545 2.76814 19.128 4645
 -6.94215 3.1646 19.128 4646.84
 -7.33884 3.56106 19.128 4648.85
 -7.73554 3.95752 19.128 4650.56
 -8.13223 4.35398 19.128 4650.23
 -8.52893 4.75044 19.128 4645.42
 -8.92562 5.1469 19.128 4634.81
 -9.32231 5.54336 19.128 4619.88
 -9.71901 5.93982 19.128 4605.36
 -10.1157 6.33628 19.128 4598.54
 -10.5124 6.73274 19.128 4601.36
 -10.9091 7.1292 19.128 4615.94
 -11.465 7.52566 19.128 4629.31
 -11.465 10.3009 19.128 4568.18
 -4.085 0.785841 19.128 4164.86
 -4.56198 0.785841 19.128 4554.2
 -4.95868 0.785841 19.128 4623.29
 -5.35537 1.1823 19.128 4635.71
 -5.75207 1.57876 19.128 4639.85
 -6.14876 1.97522 19.128 4643.88
 -6.54545 2.37168 19.128 4646.13
 -6.94215 2.76814 19.128 4647.48
 -7.33884 3.1646 19.128 4648.88
 -7.73554 3.56106 19.128 4650.58
 -8.13223 3.95752 19.128 4651.84
 -8.52893 4.35398 19.128 4651.4
 -8.92562 4.75044 19.128 4648.31
 -9.32231 5.1469 19.128 4642.08
 -9.71901 5.54336 19.128 4632.73
 -10.1157 5.93982 19.128 4622.6
 -10.5124 6.33628 19.128 4616.34
 -10.9091 6.73274 19.128 4622.84
 -11.465 7.1292 19.128 4633.8
 -4.085 0.55 19.128 4179.54
 -4.56198 0.389381 19.128 4485.01
 -4.95868 0.389381 19.128 4561.67
 -5.35537 0.785841 19.128 4637.39
 -5.75207 1.1823 19.128 4640.6
 -6.14876 1.57876 19.128 4644.64
 -6.54545 1.97522 19.128 4647.37
 -6.94215 2.37168 19.128 4648.5
 -7.33884 2.76814 19.128 4649.15
 -7.73554 3.1646 19.128 4650.21
 -8.13223 3.56106 19.128 4651.65
 -8.52893 3.95752 19.128 4652.8
 -8.92562 4.35398 19.128 4652.99
 -9.32231 4.75044 19.128 4651.71
 -9.71901 5.1469 19.128 4648.1
 -10.1157 5.54336 19.128 4641.94
 -10.5124 5.93982 19.128 4634.92
 -10.9091 6.33628 19.128 4634.91
 -11.465 6.73274 19.128 4641.67
 -11.465 7.52566 19.128 2838.43
 -11.465 7.1292 19.128 2816.62
 -11.7025 7.1292 19.128 2774.51
 -11.7025 7.52566 19.128 2802.73
 -4.085 -1.63018e-014 19.128 4404.38
 -4.56198 -1.53252e-014 19.128 4444.03
 -5.35537 0.389381 19.128 4593.83
 -4.95868 -1.44925e-014 19.128 4507.75
 -5.75207 0.785841 19.128 4640.73
 -6.14876 1.1823 19.128 4644.73
 -6.54545 1.57876 19.128 4648.26
 -6.94215 1.97522 19.128 4649.81
 -7.33884 2.37168 19.128 4649.97
 -7.73554 2.76814 19.128 4650.14
 -8.13223 3.1646 19.128 4651.05
 -8.52893 3.56106 19.128 4652.56
 -8.92562 3.95752 19.128 4654.13
 -9.32231 4.35398 19.128 4655.23
 -9.71901 4.75044 19.128 4655.19
 -10.1157 5.1469 19.128 4653.29
 -10.5124 5.54336 19.128 4649.75
 -10.9091 5.93982 19.128 4647.39
 -11.465 6.33628 19.128 4650.61
 -11.465 6.73274 19.128 2795.01
 -11.7025 6.73274 19.128 2749.76
 -5.75207 0.389381 19.128 4607.04
 -5.35537 -1.36599e-014 19.128 4550.9
 -6.14876 0.785841 19.128 4643.09
 -6.54545 1.1823 19.128 4648.07
 -6.94215 1.57876 19.128 4650.85
 -7.33884 1.97522 19.128 4651.33
 -7.73554 2.37168 19.128 4650.77
 -8.13223 2.76814 19.128 4650.81
 -8.52893 3.1646 19.128 4652.01
 -8.92562 3.56106 19.128 4654.02
 -9.32231 3.95752 19.128 4656.21
 -9.71901 4.35398 19.128 4657.97
 -10.1157 4.75044 19.128 4658.75
 -10.5124 5.1469 19.128 4658.43
 -10.9091 5.54336 19.128 4655.94
 -11.465 5.93982 19.128 4657.12
 -11.465 6.33628 19.128 2774.79
 -11.7025 6.33628 19.128 2727.83
 -6.14876 0.389381 19.128 4613.93
 -5.75207 -1.28827e-014 19.128 4574.32
 -6.54545 0.785841 19.128 4645.19
 -6.94215 1.1823 19.128 4650.57
 -7.33884 1.57876 19.128 4652.54
 -7.73554 1.97522 19.128 4652.17
 -8.13223 2.37168 19.128 4651.37
 -8.52893 2.76814 19.128 4651.85
 -8.92562 3.1646 19.128 4653.71
 -9.32231 3.56106 19.128 4656.27
 -9.71901 3.95752 19.128 4658.84
 -10.1157 4.35398 19.128 4660.98
 -10.5124 4.75044 19.128 4662.51
 -10.9091 5.1469 19.128 4659.54
 -11.465 5.54336 19.128 4659.28
 -11.465 5.93982 19.128 2757.42
 -11.7025 5.93982 19.128 2709.47
 -6.54545 0.389381 19.128 4618.05
 -6.14876 -1.205e-014 19.128 4586.77
 -6.94215 0.785841 19.128 4646.8
 -7.33884 1.1823 19.128 4652.24
 -7.73554 1.57876 19.128 4653.56
 -8.13223 1.97522 19.128 4652.8
 -8.52893 2.37168 19.128 4652.44
 -8.92562 2.76814 19.128 4653.72
 -9.32231 3.1646 19.128 4656.18
 -9.71901 3.56106 19.128 4659
 -10.1157 3.95752 19.128 4661.72
 -10.5124 4.35398 19.128 4664.01
 -10.9091 4.75044 19.128 4659.49
 -11.465 5.1469 19.128 4657.37
 -11.465 5.54336 19.128 2742.92
 -11.7025 5.54336 19.128 2694.39
 -6.94215 0.389381 19.128 4620.78
 -6.54545 -1.12729e-014 19.128 4593.77
 -7.33884 0.785841 19.128 4647.81
 -7.73554 1.1823 19.128 4653.2
 -8.13223 1.57876 19.128 4654.22
 -8.52893 1.97522 19.128 4653.77
 -8.92562 2.37168 19.128 4654.31
 -9.32231 2.76814 19.128 4656.31
 -9.71901 3.1646 19.128 4659.01
 -10.1157 3.56106 19.128 4661.87
 -10.5124 3.95752 19.128 4664.28
 -10.9091 4.35398 19.128 4657.22
 -11.465 4.75044 19.128 4652.53
 -11.465 5.1469 19.128 2730.32
 -11.7025 5.1469 19.128 2681.65
 -12.0992 5.93982 19.128 2601.61
 -12.0992 5.54336 19.128 2583.82
 -7.33884 0.389381 19.128 4622.7
 -6.94215 -1.04402e-014 19.128 4598.31
 -7.73554 0.785841 19.128 4648.26
 -8.13223 1.1823 19.128 4653.67
 -8.52893 1.57876 19.128 4654.97
 -8.92562 1.97522 19.128 4655.4
 -9.32231 2.37168 19.128 4656.82
 -9.71901 2.76814 19.128 4659.15
 -10.1157 3.1646 19.128 4661.84
 -10.5124 3.56106 19.128 4663.98
 -10.9091 3.95752 19.128 4653.67
 -11.465 4.35398 19.128 4645.66
 -11.465 4.75044 19.128 2719.11
 -11.7025 4.75044 19.128 2670.8
 -12.0992 5.1469 19.128 2568.92
 -7.73554 0.389381 19.128 4624.13
 -7.33884 -9.66305e-015 19.128 4601.67
 -8.13223 0.785841 19.128 4648.26
 -8.52893 1.1823 19.128 4653.92
 -8.92562 1.57876 19.128 4656.05
 -9.32231 1.97522 19.128 4657.5
 -9.71901 2.37168 19.128 4659.43
 -10.1157 2.76814 19.128 4661.71
 -10.5124 3.1646 19.128 4663.21
 -10.9091 3.56106 19.128 4649.28
 -11.465 3.95752 19.128 4637.28
 -11.465 4.35398 19.128 2709.15
 -11.7025 4.35398 19.128 2661.74
 -12.0992 4.75044 19.128 2556.54
 -8.13223 0.389381 19.128 4625.18
 -7.73554 -8.83038e-015 19.128 4604.43
 -8.52893 0.785841 19.128 4647.93
 -8.92562 1.1823 19.128 4654.1
 -9.32231 1.57876 19.128 4657.28
 -9.71901 1.97522 19.128 4659.42
 -10.1157 2.37168 19.128 4661.17
 -10.5124 2.76814 19.128 4661.58
 -10.9091 3.1646 19.128 4644.12
 -11.465 3.56106 19.128 4627.76
 -11.465 3.95752 19.128 2700.64
 -11.7025 3.95752 19.128 2654.48
 -12.0992 4.35398 19.128 2546.86
 -12.4959 5.1469 19.128 2523.1
 -12.4959 4.75044 19.128 2503.86
 -8.52893 0.389381 19.128 4625.88
 -8.13223 -8.05323e-015 19.128 4606.76
 -8.92562 0.785841 19.128 4647.3
 -9.32231 1.1823 19.128 4653.94
 -9.71901 1.57876 19.128 4657.77
 -10.1157 1.97522 19.128 4659.44
 -10.5124 2.37168 19.128 4658.26
 -10.9091 2.76814 19.128 4637.92
 -11.465 3.1646 19.128 4617.38
 -11.465 3.56106 19.128 2693.07
 -11.7025 3.56106 19.128 2648.2
 -12.0992 3.95752 19.128 2539.37
 -12.4959 4.35398 19.128 2487.79
 -8.92562 0.389381 19.128 4626.27
 -8.52893 -7.22056e-015 19.128 4608.72
 -9.32231 0.785841 19.128 4646.12
 -9.71901 1.1823 19.128 4652.51
 -10.1157 1.57876 19.128 4655.11
 -10.5124 1.97522 19.128 4652.48
 -10.9091 2.37168 19.128 4630.33
 -11.465 2.76814 19.128 4606.53
 -11.465 3.1646 19.128 2685.54
 -11.7025 3.1646 19.128 2641.39
 -12.0992 3.56106 19.128 2532.49
 -12.4959 3.95752 19.128 2474.43
 -12.8926 4.75044 19.128 2476.99
 -12.8926 4.35398 19.128 2451.66
 -9.32231 0.389381 19.128 4626.16
 -8.92562 -6.4434e-015 19.128 4610.34
 -9.71901 0.785841 19.128 4643.55
 -10.1157 1.1823 19.128 4647.47
 -10.5124 1.57876 19.128 4644.27
 -10.9091 1.97522 19.128 4621.33
 -11.465 2.37168 19.128 4595.94
 -11.465 2.76814 19.128 2676.8
 -11.7025 2.76814 19.128 2632.11
 -12.0992 3.1646 19.128 2523.7
 -12.4959 3.56106 19.128 2462.15
 -12.8926 3.95752 19.128 2432.86
 -9.71901 0.389381 19.128 4625.04
 -9.32231 -5.61074e-015 19.128 4611.51
 -10.1157 0.785841 19.128 4637.73
 -10.5124 1.1823 19.128 4635.13
 -10.9091 1.57876 19.128 4612.25
 -11.465 1.97522 19.128 4586.39
 -11.465 2.37168 19.128 2665.26
 -11.7025 2.37168 19.128 2618.49
 -12.0992 2.76814 19.128 2510.24
 -12.4959 3.1646 19.128 2448.41
 -12.8926 3.56106 19.128 2418.78
 -10.1157 0.389381 19.128 4621.77
 -9.71901 -4.83358e-015 19.128 4611.95
 -10.5124 0.785841 19.128 4626.46
 -10.9091 1.1823 19.128 4605.33
 -11.465 1.57876 19.128 4578.99
 -11.465 1.97522 19.128 2650.63
 -11.7025 1.97522 19.128 2601.14
 -12.0992 2.37168 19.128 2490.86
 -12.4959 2.76814 19.128 2430.92
 -12.8926 3.1646 19.128 2406.98
 -13.2893 3.95752 19.128 2419.49
 -13.2893 3.56106 19.128 2409.3
 -10.5124 0.389381 19.128 4615.63
 -10.1157 -4.26271e-015 19.128 4611.14
 -10.9091 0.785841 19.128 4601.16
 -11.465 1.1823 19.128 4575.49
 -11.465 1.57876 19.128 2635.67
 -11.7025 1.57876 19.128 2586.63
 -12.0992 1.97522 19.128 2469.08
 -12.4959 2.37168 19.128 2408.86
 -12.8926 2.76814 19.128 2394.1
 -13.2893 3.1646 19.128 2407.43
 -10.9091 0.389381 19.128 4597.65
 -10.5124 -4.0964e-015 19.128 4609.07
 -11.465 0.785841 19.128 4575.85
 -11.465 1.1823 19.128 2627.65
 -11.7025 1.1823 19.128 2584.65
 -12.0992 1.57876 19.128 2459.46
 -12.4959 1.97522 19.128 2384.8
 -12.8926 2.37168 19.128 2374.28
 -13.2893 2.76814 19.128 2408.41
 -13.686 3.56106 19.128 2425.55
 -13.686 3.1646 19.128 2432.57
 -10.9091 -4.14003e-015 19.128 4594.69
 -11.465 0.389381 19.128 4577.74
 -11.465 0.785841 19.128 2630.47
 -11.7025 0.785841 19.128 2597.24
 -12.0992 1.1823 19.128 2477.28
 -12.4959 1.57876 19.128 2376.15
 -12.8926 1.97522 19.128 2337.85
 -13.2893 2.37168 19.128 2399.61
 -13.686 2.76814 19.128 2447.42
 -14.0826 3.56106 19.128 2451.48
 -14.0826 3.1646 19.128 2458.69
 -11.465 -4.15641e-015 19.128 4578.71
 -11.465 0.389381 19.128 2641.81
 -11.7025 0.389381 19.128 2622.08
 -12.0992 0.785841 19.128 2516.53
 -12.4959 1.1823 19.128 2409.53
 -12.8926 1.57876 19.128 2299.15
 -13.2893 1.97522 19.128 2345.74
 -13.686 2.37168 19.128 2457.38
 -14.0826 2.76814 19.128 2479.09
 -11.465 -4.15641e-015 19.128 2649.22
 -11.7025 -3.20822e-015 19.128 2634.85
 -12.0992 0.389381 19.128 2571.28
 -12.4959 0.785841 19.128 2473.06
 -12.8926 1.1823 19.128 2328.51
 -13.2893 1.57876 19.128 2215.04
 -13.686 1.97522 19.128 2399.17
 -14.0826 2.37168 19.128 2502.32
 -12.0992 -1.54289e-015 19.128 2603.01
 -12.4959 0.389381 19.128 2543.67
 -12.8926 0.785841 19.128 2419.26
 -13.2893 1.1823 19.128 2174.09
 -13.686 1.57876 19.128 2109.04
 -14.0826 1.97522 19.128 2451.19
 -12.4959 -1.82523e-016 19.128 2580.21
 -12.8926 0.389381 19.128 2510.33
 -13.2893 0.785841 19.128 2272.74
 -13.686 1.1823 19.128 1882.95
 -14.0826 1.57876 19.128 2055.27
 -14.4793 2.37168 19.128 2524.18
 -14.4793 1.97522 19.128 2475.59
 -12.8926 2.1405e-016 19.128 2554.1
 -13.2893 0.389381 19.128 2342.51
 -13.686 0.785841 19.128 1975.1
 -14.0826 1.1823 19.128 1661.76
 -14.4793 1.57876 19.128 2094.4
 -14.876 2.37168 19.128 2540.67
 -14.876 1.97522 19.128 2465.78
 -13.2893 4.36094e-016 19.128 2358.26
 -13.686 0.389381 19.128 2071.39
 -14.0826 0.785841 19.128 1701
 -14.4793 1.1823 19.128 1658.55
 -14.876 1.57876 19.128 2103.42
 -13.686 6.58139e-016 19.128 2079.54
 -14.0826 0.389381 19.128 1888.08
 -14.4793 0.785841 19.128 1599.2
 -14.876 1.1823 19.128 1688.49
 -14.0826 8.80184e-016 19.128 1974.67
 -14.4793 0.389381 19.128 1829.22
 -14.876 0.785841 19.128 1595.39
 -14.4793 1.10223e-015 19.128 1999.75
 -14.876 0.389381 19.128 1856.93
 -14.876 1.32427e-015 19.128 2067.92
 -22.8099 18.4 19.128 3348.38
 -23.2 18.4 19.128 3347.77
 -23.1995 18.6265 19.128 3346.01
 -22.8099 18.6265 19.128 3347.15
 -22.4132 18.4 19.128 3349.88
 -22.4132 18.6265 19.128 3349.06
 -23.1987 19.023 19.128 3342.63
 -22.8099 19.023 19.128 3344.19
 -22.4132 19.023 19.128 3347.38
 -22.0165 18.4 19.128 3351.73
 -22.0165 18.6265 19.128 3351.21
 -23.1976 19.4195 19.128 3340.68
 -22.8099 19.4195 19.128 3342.92
 -22.0165 19.023 19.128 3350.32
 -22.4132 19.4195 19.128 3347.04
 -21.6198 18.4 19.128 3353.63
 -21.6198 18.6265 19.128 3353.29
 -23.196 19.8159 19.128 3339.32
 -22.8099 19.8159 19.128 3342.03
 -21.6198 19.023 19.128 3352.82
 -22.0165 19.4195 19.128 3350.33
 -22.4132 19.8159 19.128 3346.68
 -21.2231 18.4 19.128 3355.06
 -21.2231 18.6265 19.128 3355.06
 -23.1942 20.2124 19.128 3338.12
 -22.8099 20.2124 19.128 3341.05
 -21.2231 19.023 19.128 3354.98
 -21.6198 19.4195 19.128 3352.98
 -22.0165 19.8159 19.128 3350.04
 -22.4132 20.2124 19.128 3345.87
 -20.9016 18.4 19.128 3400.94
 -20.8264 18.6265 19.128 3358.74
 -23.1919 20.6089 19.128 3336.98
 -22.8099 20.6089 19.128 3339.87
 -20.8264 19.023 19.128 3356.89
 -21.2231 19.4195 19.128 3355.19
 -21.6198 19.8159 19.128 3352.74
 -22.0165 20.2124 19.128 3349.13
 -22.4132 20.6089 19.128 3344.52
 -20.4298 18.4 19.128 3470.53
 -20.4298 18.6265 19.128 3363.3
 -23.1892 21.0053 19.128 3335.88
 -22.8099 21.0053 19.128 3338.48
 -20.4298 19.023 19.128 3358.62
 -20.8264 19.4195 19.128 3357.05
 -21.2231 19.8159 19.128 3354.95
 -21.6198 20.2124 19.128 3351.81
 -22.0165 20.6089 19.128 3347.6
 -22.4132 21.0053 19.128 3342.7
 -20.0331 18.4 19.128 3489.18
 -20.0331 18.6265 19.128 3367.15
 -20.4298 17.8336 19.128 3832.33
 -20.9016 17.8336 19.128 3833.68
 -20.9016 18.4 19.128 3617.93
 -20.4298 18.4 19.128 3470.53
 -23.1861 21.4018 19.128 3334.82
 -22.8099 21.4018 19.128 3336.93
 -20.0331 19.023 19.128 3360.27
 -20.4298 19.4195 19.128 3358.69
 -20.8264 19.8159 19.128 3356.8
 -21.2231 20.2124 19.128 3354.03
 -21.6198 20.6089 19.128 3350.2
 -22.0165 21.0053 19.128 3345.53
 -22.4132 21.4018 19.128 3340.47
 -19.6364 18.4 19.128 3497.38
 -19.6364 18.6265 19.128 3370.95
 -20.0331 17.8336 19.128 3827.11
 -20.0331 18.4 19.128 3489.18
 -20.9016 17.4372 19.128 3854.27
 -20.4298 17.4372 19.128 3854.34
 -23.182 21.7982 19.128 3333.85
 -22.8099 21.7982 19.128 3335.32
 -19.6364 19.023 19.128 3361.91
 -20.0331 19.4195 19.128 3360.22
 -20.4298 19.8159 19.128 3358.45
 -20.8264 20.2124 19.128 3355.95
 -21.2231 20.6089 19.128 3352.43
 -21.6198 21.0053 19.128 3348
 -22.0165 21.4018 19.128 3342.96
 -22.4132 21.7982 19.128 3337.82
 -19.2397 18.4 19.128 3501.33
 -19.2397 18.6265 19.128 3374.32
 -19.6364 18.4 19.128 3497.38
 -19.6364 17.8336 19.128 3822.95
 -20.0331 17.4372 19.128 3854.62
 -20.9016 17.0407 19.128 3842.53
 -20.4298 17.0407 19.128 3842.68
 -23.1773 22.1947 19.128 3333.13
 -22.8099 22.1947 19.128 3333.78
 -19.2397 19.023 19.128 3363.36
 -19.6364 19.4195 19.128 3361.68
 -20.0331 19.8159 19.128 3360.02
 -20.4298 20.2124 19.128 3357.8
 -20.8264 20.6089 19.128 3354.55
 -21.2231 21.0053 19.128 3350.27
 -21.6198 21.4018 19.128 3345.29
 -22.0165 21.7982 19.128 3339.81
 -22.4132 22.1947 19.128 3334.77
 -18.843 18.4 19.128 3501.09
 -18.843 18.6265 19.128 3377.09
 -19.2397 18.4 19.128 3501.33
 -19.2397 17.8336 19.128 3819
 -19.6364 17.4372 19.128 3855.26
 -20.0331 17.0407 19.128 3842.62
 -20.9016 16.6442 19.128 3834.04
 -20.4298 16.6442 19.128 3830.43
 -18.843 19.023 19.128 3364.39
 -19.2397 19.4195 19.128 3363.04
 -19.6364 19.8159 19.128 3361.53
 -20.0331 20.2124 19.128 3359.64
 -20.4298 20.6089 19.128 3356.83
 -20.8264 21.0053 19.128 3352.78
 -21.2231 21.4018 19.128 3347.71
 -21.6198 21.7982 19.128 3342.03
 -22.0165 22.1947 19.128 3335.91
 -18.4463 18.4 19.128 3497.19
 -18.4463 18.6265 19.128 3379.42
 -18.843 18.4 19.128 3501.09
 -18.843 17.8336 19.128 3813.08
 -19.2397 17.4372 19.128 3856.11
 -19.6364 17.0407 19.128 3842.05
 -20.0331 16.6442 19.128 3824.36
 -18.4463 19.023 19.128 3364.87
 -18.843 19.4195 19.128 3364.28
 -19.2397 19.8159 19.128 3362.99
 -19.6364 20.2124 19.128 3361.4
 -20.0331 20.6089 19.128 3359.16
 -20.4298 21.0053 19.128 3355.72
 -20.8264 21.4018 19.128 3350.79
 -21.2231 21.7982 19.128 3344.81
 -18.0496 18.4 19.128 3490.48
 -18.0496 18.6265 19.128 3382.85
 -18.4463 18.4 19.128 3497.19
 -18.4463 17.8336 19.128 3800.61
 -18.843 17.4372 19.128 3855.97
 -19.2397 17.0407 19.128 3841.32
 -19.6364 16.6442 19.128 3817.06
 -18.0496 19.023 19.128 3365.81
 -18.4463 19.4195 19.128 3365.33
 -18.843 19.8159 19.128 3364.44
 -19.2397 20.2124 19.128 3363.07
 -19.6364 20.6089 19.128 3361.34
 -20.0331 21.0053 19.128 3358.69
 -20.4298 21.4018 19.128 3354.51
 -20.8264 21.7982 19.128 3348.58
 -17.6529 18.4 19.128 3474.46
 -17.6529 18.6265 19.128 3388.83
 -18.0496 18.4 19.128 3490.48
 -18.0496 17.8336 19.128 3773.29
 -18.4463 17.4372 19.128 3851.46
 -18.843 17.0407 19.128 3840.55
 -19.2397 16.6442 19.128 3807.53
 -17.6529 19.023 19.128 3368.54
 -18.0496 19.4195 19.128 3366.44
 -18.4463 19.8159 19.128 3365.92
 -18.843 20.2124 19.128 3364.74
 -19.2397 20.6089 19.128 3363.31
 -19.6364 21.0053 19.128 3361.35
 -20.0331 21.4018 19.128 3358.19
 -20.4298 21.7982 19.128 3353.09
 -17.2562 18.4 19.128 3451.57
 -17.2562 18.6265 19.128 3400.23
 -17.6529 18.4 19.128 3474.46
 -17.6529 17.8336 19.128 3719.44
 -18.0496 17.4372 19.128 3834.85
 -18.4463 17.0407 19.128 3838.64
 -18.843 16.6442 19.128 3796.05
 -17.2562 19.023 19.128 3378.3
 -17.6529 19.4195 19.128 3367.93
 -18.0496 19.8159 19.128 3367.51
 -18.4463 20.2124 19.128 3366.54
 -18.843 20.6089 19.128 3365.2
 -19.2397 21.0053 19.128 3363.64
 -19.6364 21.4018 19.128 3361.34
 -20.0331 21.7982 19.128 3357.45
 -16.8066 18.6265 19.128 3406.96
 -16.8066 18.4 19.128 3427.47
 -17.2562 18.4 19.128 3451.57
 -17.2562 17.8336 19.128 3635.26
 -17.6529 17.4372 19.128 3791.6
 -18.0496 17.0407 19.128 3831.97
 -18.4463 16.6442 19.128 3783.03
 -17.2562 19.4195 19.128 3373.42
 -16.8066 19.023 19.128 3387.24
 -17.6529 19.8159 19.128 3368.86
 -18.0496 20.2124 19.128 3368.46
 -18.4463 20.6089 19.128 3367.21
 -18.843 21.0053 19.128 3365.73
 -19.2397 21.4018 19.128 3363.92
 -19.6364 21.7982 19.128 3361.05
 -16.8066 18.4 19.128 3484.47
 -16.8066 17.8336 19.128 3577.1
 -17.2562 17.4372 19.128 3701.23
 -17.6529 17.0407 19.128 3811.11
 -17.2562 19.8159 19.128 3372.11
 -16.8066 19.4195 19.128 3378.71
 -17.6529 20.2124 19.128 3369.81
 -18.0496 20.6089 19.128 3369.32
 -18.4463 21.0053 19.128 3367.85
 -18.843 21.4018 19.128 3366.14
 -19.2397 21.7982 19.128 3363.87
 -16.8066 17.4372 19.128 3633.47
 -17.2562 17.0407 19.128 3748.19
 -17.2562 20.2124 19.128 3371.8
 -16.8066 19.8159 19.128 3375.23
 -17.6529 20.6089 19.128 3370.64
 -18.0496 21.0053 19.128 3370.04
 -18.4463 21.4018 19.128 3368.3
 -18.843 21.7982 19.128 3366.17
 -17.2562 20.6089 19.128 3371.83
 -16.8066 20.2124 19.128 3373.65
 -17.6529 21.0053 19.128 3371.34
 -18.0496 21.4018 19.128 3370.55
 -18.4463 21.7982 19.128 3368.32
 -17.2562 21.0053 19.128 3371.95
 -16.8066 20.6089 19.128 3372.88
 -17.6529 21.4018 19.128 3371.9
 -18.0496 21.7982 19.128 3370.61
 -17.2562 21.4018 19.128 3371.67
 -16.8066 21.0053 19.128 3372.39
 -17.6529 21.7982 19.128 3372.16
 -17.2562 21.7982 19.128 3371.79
 -16.8066 21.29 19.128 3278.71
 -17.6529 22.1947 19.128 3371.32
 -17.2562 22.1947 19.128 3371.79
 -16.8066 21.7982 19.128 3331.89
 -16.8066 22.1947 19.128 3355.83
 -1.31867 18.4 19.128 3043.08
 -1.68387 18.4 19.128 3048.65
 -1.78512 18.6265 19.128 2743.83
 -1.38843 18.6265 19.128 2739.36
 -1.78512 19.023 19.128 2726.12
 -1.38843 19.023 19.128 2721.68
 -2.18182 18.6265 19.128 2749.56
 -2.18182 18.4 19.128 3091.86
 -2.18182 19.023 19.128 2732.79
 -1.78512 19.4195 19.128 2713.66
 -1.38843 19.4195 19.128 2708.34
 -2.57851 18.6265 19.128 2758.83
 -2.58289 18.4 19.128 3066.55
 -2.57851 19.023 19.128 2741.96
 -2.18182 19.4195 19.128 2721.76
 -1.78512 19.8159 19.128 2698.67
 -1.38843 19.8159 19.128 2691.62
 -0.991736 19.8159 19.128 2687.62
 -1.38843 20.2124 19.128 2672.28
 -0.991736 20.2124 19.128 2666.75
 -2.97521 18.6265 19.128 2797.64
 -2.885 18.4 19.128 3225.39
 -2.97521 19.023 19.128 2755.84
 -2.57851 19.4195 19.128 2733.43
 -2.18182 19.8159 19.128 2709.9
 -1.78512 20.2124 19.128 2682.25
 -1.38843 20.6089 19.128 2651.83
 -0.991736 20.6089 19.128 2643.87
 -3.3719 18.6265 19.128 2907.58
 -3.3719 18.4 19.128 3145.38
 -3.3719 19.023 19.128 2782.15
 -2.97521 19.4195 19.128 2749.41
 -2.57851 19.8159 19.128 2726.63
 -2.18182 20.2124 19.128 2698.48
 -1.78512 20.6089 19.128 2665.92
 -1.38843 21.0053 19.128 2631.96
 -0.991736 21.0053 19.128 2620.7
 -3.7686 18.6265 19.128 2986.09
 -3.745 18.4 19.128 3385.85
 -3.7686 19.023 19.128 2810.56
 -3.3719 19.4195 19.128 2770.84
 -2.97521 19.8159 19.128 2750.14
 -2.57851 20.2124 19.128 2722.91
 -2.18182 20.6089 19.128 2688.9
 -1.78512 21.0053 19.128 2651.29
 -0.595041 20.6089 19.128 2639.85
 -0.595041 21.0053 19.128 2614.42
 -1.38843 21.4018 19.128 2614.55
 -0.991736 21.4018 19.128 2599.26
 -4.16529 18.6265 19.128 2971.28
 -4.085 18.4 19.128 3053.67
 -4.16529 19.023 19.128 2830.67
 -3.7686 19.4195 19.128 2798.17
 -3.3719 19.8159 19.128 2780.88
 -2.97521 20.2124 19.128 2756.96
 -2.57851 20.6089 19.128 2723.54
 -2.18182 21.0053 19.128 2682.84
 -1.78512 21.4018 19.128 2640.22
 -0.595041 21.4018 19.128 2590.11
 -1.38843 21.7982 19.128 2602.22
 -0.991736 21.7982 19.128 2582.12
 -4.56198 18.6265 19.128 2928.86
 -4.385 18.4 19.128 3260.27
 -4.56198 19.023 19.128 2849.97
 -4.16529 19.4195 19.128 2830.03
 -3.7686 19.8159 19.128 2817.85
 -3.3719 20.2124 19.128 2800.01
 -2.97521 20.6089 19.128 2770.98
 -2.57851 21.0053 19.128 2730.52
 -2.18182 21.4018 19.128 2682.35
 -1.78512 21.7982 19.128 2635.33
 -0.595041 21.7982 19.128 2569.44
 -1.38843 22.1947 19.128 2598.46
 -0.991736 22.1947 19.128 2572.61
 -4.95868 18.6265 19.128 2894.48
 -4.95868 18.4 19.128 2948.74
 -4.95868 19.023 19.128 2872.02
 -4.56198 19.4195 19.128 2863.99